version 3
run General-0-20240515-00:37:53-90449
attr configname General
attr datetime 20240515-00:37:53
attr datetimef 20240515-003753
attr experiment General
attr inifile omnetpp.ini
attr iterationvars ""
attr iterationvarsd ""
attr iterationvarsf ""
attr measurement ""
attr network Network
attr processid 90449
attr repetition 0
attr replication #0
attr resultdir results
attr runnumber 0
attr seedset 0
config network Network
config sim-time-limit 200s
config Network.nodeTx.gen.generationInterval exponential(0.1)
config Network.nodeTx.gen.packetByteSize 12500
config Network.nodeTx.traTx.bufferSize 2000000
config Network.dataQueue.bufferSize 200
config Network.feedbackQueue.bufferSize 200
config Network.nodeRx.traRx.bufferSize 200

vector 0 Network.nodeTx.gen "Sent packets" ETV
vector 1 Network.nodeTx.traTx "Buffer Size" ETV
vector 2 Network.dataQueue "Buffer Size" ETV
vector 3 Network.feedbackQueue "Buffer Size" ETV
vector 4 Network.nodeRx.traRx "Buffer Size" ETV
vector 5 Network.nodeRx.sink Delay ETV
vector 6 Network.nodeRx.sink PacketRecieved ETV
0	1	0.079587450457	1
0	13	0.169443489305	1
0	20	0.29503656511	1
0	30	0.480996986317	1
0	33	0.573319299464	1
0	44	0.768473833052	1
0	50	0.84719394705	1
0	61	1.03509035247	1
0	66	1.090195201137	1
0	73	1.187895843776	1
0	79	1.291711773842	1
0	83	1.340224590214	1
0	88	1.397776509902	1
0	90	1.433092423816	1
0	103	1.65544486602	1
0	105	1.661283332929	1
0	123	1.992774560922	1
0	126	2.024610175006	1
0	128	2.072970385501	1
0	134	2.137915020326	1
0	145	2.294804632088	1
0	152	2.46202575212	1
0	158	2.537293163451	1
0	165	2.602681420173	1
0	169	2.686624705463	1
0	173	2.736511906365	1
0	189	2.99633731495	1
0	196	3.177174241377	1
0	202	3.184542776924	1
0	204	3.225700576548	1
0	206	3.23481667916	1
0	212	3.339277929991	1
0	214	3.341320488831	1
0	221	3.387245302557	1
0	227	3.565994068901	1
0	247	3.881011061769	1
0	254	4.031589487633	1
0	256	4.046712572999	1
0	267	4.250743998793	1
0	278	4.454833220384	1
0	293	4.839355407298	1
0	298	4.903526324566	1
0	307	5.064050280272	1
0	317	5.225450487761	1
0	322	5.287343433724	1
0	326	5.360839875843	1
0	335	5.512493473242	1
0	344	5.626087367413	1
0	347	5.638674808357	1
0	353	5.766197578579	1
0	360	5.868340766014	1
0	366	5.955572885518	1
0	368	5.971045853568	1
0	375	6.048129319415	1
0	390	6.337571367214	1
0	398	6.479707835223	1
0	403	6.553490564399	1
0	405	6.564685180462	1
0	412	6.618241752485	1
0	418	6.682411222688	1
0	420	6.713139257903	1
0	422	6.733759586106	1
0	433	6.882585068681	1
0	440	7.016114087143	1
0	442	7.077022329461	1
0	448	7.101427178535	1
0	455	7.185460649096	1
0	457	7.199988451825	1
0	459	7.201885308745	1
0	461	7.241062389813	1
0	467	7.33720048372	1
0	469	7.353414132665	1
0	476	7.448113800382	1
0	478	7.473257993589	1
0	484	7.569212791326	1
0	491	7.618068496257	1
0	506	7.905859998385	1
0	517	8.138751335806	1
0	524	8.253265231276	1
0	530	8.313039838958	1
0	532	8.357591688463	1
0	539	8.452541146813	1
0	545	8.509994387487	1
0	556	8.742629493656	1
0	563	8.862240273602	1
0	565	8.87269639618	1
0	567	8.878907925227	1
0	587	9.228929293672	1
0	593	9.338820540427	1
0	600	9.444703953576	1
0	606	9.555763698145	1
0	608	9.574506304747	1
0	615	9.598126975355	1
0	617	9.642467378217	1
0	619	9.65627024706	1
0	630	9.795174516039	1
0	632	9.833070712467	1
0	638	9.926676868444	1
0	640	9.971887074466	1
0	647	10.011198330196	1
0	653	10.095641109549	1
0	655	10.09955942519	1
0	657	10.157291856271	1
0	664	10.257878956788	1
0	688	10.703328641406	1
0	704	11.022623305611	1
0	706	11.033386816427	1
0	712	11.139169457762	1
0	714	11.16259960964	1
0	721	11.263401534182	1
0	727	11.280992888725	1
0	752	11.817002923749	1
0	758	11.922877195258	1
0	765	12.010068780621	1
0	767	12.039276833948	1
0	773	12.092783301656	1
0	775	12.155577459755	1
0	782	12.219955559915	1
0	784	12.247983260763	1
0	790	12.34566966817	1
0	792	12.362982413785	1
0	799	12.404232536777	1
0	801	12.415928077756	1
0	807	12.528244907909	1
0	814	12.635052127624	1
0	816	12.673207711961	1
0	822	12.688078938886	1
0	829	12.838742472213	1
0	831	12.860630531864	1
0	846	13.159349521049	1
0	853	13.205350916823	1
0	859	13.313977854911	1
0	870	13.486011020683	1
0	872	13.487377478526	1
0	874	13.497591966678	1
0	881	13.595102160094	1
0	887	13.777084052022	1
0	898	13.889065488597	1
0	900	13.899168966128	1
0	916	14.256527803362	1
0	936	14.63143094932	1
0	947	14.841963079399	1
0	953	14.905196739039	1
0	955	14.976455098372	1
0	975	15.352647826822	1
0	977	15.358380519464	1
0	984	15.451228369154	1
0	990	15.511223057818	1
0	997	15.645647585033	1
0	999	15.647666597848	1
0	1001	15.651664227754	1
0	1007	15.709952066641	1
0	1009	15.743193090737	1
0	1029	16.132350103022	1
0	1031	16.145155779553	1
0	1038	16.189697725745	1
0	1040	16.224815334683	1
0	1046	16.290379963119	1
0	1048	16.303018826762	1
0	1055	16.419706179417	1
0	1057	16.457976274303	1
0	1068	16.670399994003	1
0	1074	16.723888431579	1
0	1085	16.974279609888	1
0	1092	16.980909350036	1
0	1094	17.005348894844	1
0	1100	17.123267847551	1
0	1107	17.206552199158	1
0	1113	17.290161952355	1
0	1124	17.490486004606	1
0	1126	17.521327488616	1
0	1133	17.592452282338	1
0	1135	17.666528177383	1
0	1150	17.915086413081	1
0	1152	17.924951443923	1
0	1163	18.178981894719	1
0	1170	18.264771458826	1
0	1172	18.27344850706	1
0	1187	18.538374099928	1
0	1189	18.570908141481	1
0	1196	18.609264162891	1
0	1198	18.610204237957	1
0	1204	18.720288828966	1
0	1215	18.905021594066	1
0	1217	18.919154665422	1
0	1224	19.02333273084	1
0	1230	19.149326111851	1
0	1241	19.333454359	1
0	1243	19.367619775703	1
0	1250	19.398371548079	1
0	1252	19.418606591936	1
0	1254	19.469326604262	1
0	1260	19.557639508458	1
0	1267	19.638119248438	1
0	1269	19.640150494318	1
0	1271	19.658175719516	1
0	1282	19.834749826757	1
0	1288	19.880922916361	1
0	1290	19.88139357041	1
0	1292	19.897227721033	1
0	1299	20.01049113523	1
0	1305	20.094799438445	1
0	1307	20.12627160453	1
0	1314	20.247922469874	1
0	1325	20.380798257249	1
0	1327	20.414832931073	1
0	1342	20.742347248844	1
0	1349	20.799137664192	1
0	1351	20.827739761443	1
0	1358	20.968842202372	1
0	1364	21.054681499155	1
0	1369	21.105115879814	1
0	1375	21.194774966893	1
0	1383	21.421148324479	1
0	1388	21.506070405635	1
0	1394	21.607936278637	1
0	1397	21.633178277926	1
0	1405	21.855328967773	1
0	1415	22.160557133461	1
0	1421	22.274517929814	1
0	1426	22.333780332559	1
0	1432	22.393418271992	1
0	1440	22.580764259978	1
0	1450	22.965064918302	1
0	1458	23.085288775027	1
0	1461	23.097641439763	1
0	1464	23.13294345309	1
0	1470	23.278625308946	1
0	1478	23.446717529401	1
0	1483	23.499789779063	1
0	1486	23.550291653838	1
0	1492	23.662819855522	1
0	1500	23.875769795129	1
0	1505	23.904510842736	1
0	1511	23.991564425369	1
0	1514	24.02913830961	1
0	1522	24.242621354608	1
0	1532	24.579058399913	1
0	1540	24.696996693277	1
0	1546	24.785782834321	1
0	1551	24.914973761201	1
0	1557	25.022757249615	1
0	1562	25.092337195705	1
0	1565	25.168523972835	1
0	1578	25.481070808601	1
0	1581	25.507276532769	1
0	1587	25.610556233834	1
0	1590	25.66078731366	1
0	1595	25.715926912673	1
0	1601	25.812372269222	1
0	1606	25.905612557263	1
0	1609	25.970023028095	1
0	1612	25.97196100623	1
0	1618	26.035473777793	1
0	1621	26.07136649938	1
0	1629	26.197270851106	1
0	1634	26.305202870972	1
0	1637	26.33916934423	1
0	1640	26.3734293067	1
0	1646	26.421792875359	1
0	1651	26.518030380936	1
0	1657	26.65632830159	1
0	1662	26.712324408597	1
0	1670	26.923069169092	1
0	1673	26.937626566937	1
0	1676	26.948481276786	1
0	1682	26.983903690011	1
0	1685	26.993595965469	1
0	1688	27.077984812728	1
0	1693	27.121687614105	1
0	1699	27.211060521936	1
0	1704	27.291315720512	1
0	1707	27.376723694076	1
0	1710	27.380144035912	1
0	1718	27.48604497445	1
0	1729	27.833298522378	1
0	1734	27.938883483244	1
0	1737	27.977596492459	1
0	1743	28.034057542571	1
0	1746	28.059065692069	1
0	1756	28.285929091338	1
0	1759	28.301158453863	1
0	1762	28.346975742259	1
0	1765	28.357207803744	1
0	1771	28.414453958887	1
0	1784	28.828234934938	1
0	1792	29.050726400661	1
0	1797	29.080882991983	1
0	1803	29.244972749776	1
0	1808	29.321980435731	1
0	1814	29.443682385265	1
0	1819	29.503089735097	1
0	1822	29.51365099946	1
0	1825	29.52413918302	1
0	1833	29.776067396028	1
0	1839	29.819501961622	1
0	1844	29.944762714113	1
0	1850	30.008108975885	1
0	1870	30.684648027879	1
0	1876	30.868621306387	1
0	1881	30.884808315058	1
0	1889	31.119826044033	1
0	1897	31.322416925743	1
0	1900	31.326245217031	1
0	1903	31.343977774546	1
0	1909	31.414969567268	1
0	1914	31.51056620966	1
0	1917	31.528820069848	1
0	1920	31.542038440809	1
0	1928	31.69302078637	1
0	1936	31.881413675029	1
0	1944	32.081612324582	1
0	1950	32.246284234715	1
0	1955	32.299284522529	1
0	1961	32.383472618702	1
0	1964	32.398551719721	1
0	1967	32.45083872273	1
0	1970	32.454217401285	1
0	1973	32.461384939716	1
0	1986	32.866369623596	1
0	1994	32.985913480224	1
0	1997	33.032640736865	1
0	2002	33.09307064405	1
0	2005	33.147556356864	1
0	2011	33.275589777245	1
0	2016	33.280781032463	1
0	2024	33.482058306084	1
0	2027	33.527549490563	1
0	2040	33.898545549753	1
0	2043	33.900222326352	1
0	2051	34.093880050101	1
0	2054	34.120112981018	1
0	2057	34.12129130421	1
0	2063	34.266070712409	1
0	2068	34.310695994461	1
0	2079	34.599157169671	1
0	2084	34.730087006073	1
0	2090	34.868716141275	1
0	2095	34.887545638797	1
0	2098	34.929006893063	1
0	2104	35.002620003062	1
0	2107	35.069866054745	1
0	2110	35.075453060034	1
0	2115	35.116850952301	1
0	2118	35.139164873111	1
0	2121	35.158947823857	1
0	2124	35.160817370899	1
0	2127	35.179569266019	1
0	2135	35.33741053823	1
0	2141	35.399670272628	1
0	2144	35.425020843142	1
0	2152	35.632623949186	1
0	2155	35.674989659322	1
0	2165	35.963444088163	1
0	2176	36.226665974418	1
0	2181	36.32037984619	1
0	2187	36.442259526524	1
0	2192	36.533055929256	1
0	2195	36.536291609721	1
0	2203	36.689374732348	1
0	2206	36.707370466503	1
0	2209	36.776690443457	1
0	2215	36.873838659266	1
0	2218	36.879006949846	1
0	2223	36.965099313514	1
0	2231	37.085196404168	1
0	2234	37.112363211202	1
0	2250	37.600276500001	1
0	2258	37.872411325592	1
0	2263	37.903508106089	1
0	2269	37.998691076843	1
0	2274	38.112350726369	1
0	2280	38.189058691826	1
0	2288	38.388775888575	1
0	2291	38.477913746266	1
0	2299	38.616881452644	1
0	2304	38.74785998978	1
0	2317	39.081653423165	1
0	2320	39.119042072755	1
0	2326	39.199840078095	1
0	2329	39.250626590364	1
0	2332	39.274501877649	1
0	2337	39.298054334991	1
0	2340	39.323214196302	1
0	2343	39.34381740115	1
0	2346	39.36850332803	1
0	2357	39.65741088722	1
0	2362	39.741708764761	1
0	2368	39.876243508084	1
0	2373	39.936411406736	1
0	2386	40.0038358637	1
0	2400	40.355283731754	1
0	2406	40.381085008148	1
0	2413	40.495198798434	1
0	2415	40.524549563626	1
0	2417	40.533464992626	1
0	2419	40.539443088918	1
0	2421	40.54525032513	1
0	2427	40.602240081661	1
0	2429	40.66915145403	1
0	2436	40.706518433469	1
0	2447	40.919385442922	1
0	2453	41.038571253287	1
0	2473	41.41324071467	1
0	2475	41.460682343703	1
0	2482	41.55682630086	1
0	2484	41.576623074393	1
0	2490	41.654820646481	1
0	2492	41.657319481812	1
0	2503	41.8501554955	1
0	2505	41.857117262607	1
0	2516	41.993310435038	1
0	2523	42.107064285592	1
0	2525	42.172187358784	1
0	2531	42.232645480618	1
0	2538	42.345681035209	1
0	2544	42.422593015319	1
0	2551	42.51599904858	1
0	2562	42.742983050158	1
0	2568	42.868403377167	1
0	2593	43.332368629804	1
0	2599	43.395761631743	1
0	2601	43.420210733947	1
0	2608	43.481094025321	1
0	2614	43.589884468682	1
0	2625	43.826776285766	1
0	2627	43.857336775947	1
0	2629	43.872096379236	1
0	2631	43.874183101097	1
0	2638	43.900218242252	1
0	2644	44.042256587811	1
0	2655	44.255612916558	1
0	2662	44.294181685963	1
0	2673	44.528966062106	1
0	2675	44.577329900855	1
0	2686	44.681114908404	1
0	2688	44.769865101252	1
0	2694	44.809122404071	1
0	2705	44.986936737754	1
0	2707	45.060273505071	1
0	2714	45.159423934361	1
0	2716	45.159429469551	1
0	2727	45.365511593639	1
0	2733	45.402887923021	1
0	2735	45.434845388508	1
0	2742	45.490262471413	1
0	2748	45.650234415597	1
0	2759	45.866810783684	1
0	2766	45.887345560558	1
0	2772	46.001251325625	1
0	2788	46.306569792584	1
0	2790	46.367474253855	1
0	2801	46.483785582198	1
0	2803	46.549835890173	1
0	2805	46.57410773954	1
0	2816	46.729574033321	1
0	2831	47.024022061063	1
0	2833	47.050086074001	1
0	2844	47.181336873298	1
0	2855	47.393611538692	1
0	2857	47.422906684541	1
0	2859	47.460549619693	1
0	2866	47.484541971637	1
0	2881	47.800251525779	1
0	2883	47.873274292303	1
0	2890	47.937093152862	1
0	2892	47.939692927381	1
0	2898	48.064028005176	1
0	2905	48.087280507014	1
0	2907	48.103967971137	1
0	2909	48.159251808202	1
0	2920	48.290349045018	1
0	2922	48.337216692616	1
0	2928	48.441137256274	1
0	2935	48.50342018725	1
0	2937	48.527612151727	1
0	2939	48.560133753525	1
0	2941	48.580769552885	1
0	2947	48.669148118488	1
0	2958	48.833955735804	1
0	2969	49.033359655932	1
0	2976	49.170827651312	1
0	2982	49.183330910304	1
0	2989	49.295676960259	1
0	2991	49.368529344532	1
0	2997	49.400949255881	1
0	2999	49.415113459361	1
0	3001	49.434339603445	1
0	3008	49.560520870794	1
0	3019	49.682420805312	1
0	3021	49.732848798637	1
0	3027	49.795052490545	1
0	3029	49.87839031461	1
0	3040	50.061916654904	1
0	3047	50.082162531274	1
0	3049	50.105086963795	1
0	3051	50.120734540833	1
0	3053	50.138761970791	1
0	3059	50.205716029877	1
0	3061	50.219050092204	1
0	3063	50.262995631253	1
0	3074	50.391038066651	1
0	3085	50.673101661493	1
0	3087	50.676194290649	1
0	3098	50.821149768292	1
0	3105	50.958584069734	1
0	3116	51.096680379301	1
0	3118	51.106397147138	1
0	3129	51.340446343204	1
0	3131	51.364966152468	1
0	3133	51.373677010794	1
0	3144	51.512008657409	1
0	3150	51.592347833676	1
0	3157	51.723910459506	1
0	3163	51.811731967378	1
0	3165	51.816400741742	1
0	3181	52.143250381824	1
0	3183	52.16671596675	1
0	3189	52.201267925121	1
0	3191	52.235083396605	1
0	3193	52.262636190309	1
0	3200	52.375728038228	1
0	3206	52.386296755638	1
0	3208	52.392808042117	1
0	3210	52.394464651559	1
0	3212	52.475578753782	1
0	3228	52.740834605334	1
0	3230	52.741762907772	1
0	3236	52.852603883193	1
0	3247	53.031602843641	1
0	3258	53.185385715089	1
0	3278	53.600982824645	1
0	3280	53.634073812763	1
0	3287	53.755642860099	1
0	3293	53.843930914595	1
0	3295	53.863975134104	1
0	3297	53.870584335173	1
0	3304	53.942408983184	1
0	3310	54.008889758139	1
0	3317	54.095746331286	1
0	3332	54.475148709595	1
0	3343	54.630049877511	1
0	3354	54.839205534773	1
0	3361	54.9324667203	1
0	3363	54.973739706973	1
0	3369	54.998381289194	1
0	3385	55.324273386912	1
0	3391	55.385001315774	1
0	3393	55.411359027058	1
0	3404	55.622447904496	1
0	3420	55.920667972043	1
0	3426	55.988448172249	1
0	3437	56.272112191587	1
0	3448	56.397835891144	1
0	3455	56.558381767451	1
0	3461	56.624966016115	1
0	3468	56.724512380452	1
0	3474	56.847800426755	1
0	3485	57.055176573065	1
0	3492	57.12412002685	1
0	3494	57.158795357229	1
0	3505	57.344938521527	1
0	3516	57.533948691337	1
0	3518	57.555558312996	1
0	3524	57.651759505655	1
0	3535	57.80018375392	1
0	3537	57.801516278403	1
0	3553	58.167482011479	1
0	3559	58.210135592683	1
0	3570	58.408410483143	1
0	3572	58.424443892592	1
0	3579	58.576050785575	1
0	3599	58.976845751062	1
0	3623	59.397031693687	1
0	3625	59.462111427923	1
0	3636	59.602178997619	1
0	3638	59.670973345465	1
0	3640	59.671378977597	1
0	3647	59.773397686392	1
0	3653	59.804797476198	1
0	3655	59.850776607976	1
0	3663	59.903623330806	1
0	3666	59.918345834537	1
0	3669	59.974246601536	1
0	3677	60.14690993951	1
0	3682	60.182269597036	1
0	3685	60.203322925856	1
0	3688	60.254594390119	1
0	3694	60.326198921918	1
0	3697	60.339056945646	1
0	3700	60.364458083481	1
0	3713	60.759221410237	1
0	3716	60.769518246609	1
0	3721	60.821626128717	1
0	3729	61.019815162828	1
0	3735	61.104028793112	1
0	3745	61.46492289361	1
0	3751	61.507022223415	1
0	3761	61.831018520105	1
0	3769	61.98654795614	1
0	3777	62.223586714201	1
0	3780	62.276582872128	1
0	3788	62.425325847562	1
0	3791	62.469840781503	1
0	3797	62.510359069737	1
0	3800	62.561358153122	1
0	3803	62.569816102298	1
0	3808	62.605745492811	1
0	3811	62.658042258177	1
0	3819	62.807305474596	1
0	3822	62.83373252101	1
0	3833	63.094389701242	1
0	3836	63.108602252381	1
0	3839	63.147952493493	1
0	3842	63.153443230748	1
0	3852	63.458929208649	1
0	3860	63.588243994529	1
0	3863	63.589648653653	1
0	3866	63.590797978674	1
0	3869	63.667040347095	1
0	3877	63.814260762894	1
0	3880	63.850584984784	1
0	3883	63.86647830275	1
0	3892	64.080916849201	1
0	3897	64.089203076493	1
0	3900	64.118054347528	1
0	3903	64.127441802256	1
0	3908	64.240579679016	1
0	3914	64.352068421207	1
0	3922	64.518364999274	1
0	3925	64.546517401521	1
0	3930	64.603106855684	1
0	3933	64.657672627161	1
0	3941	64.797159536287	1
0	3944	64.878661369377	1
0	3952	65.055623351698	1
0	3960	65.252629108257	1
0	3966	65.300276966517	1
0	3971	65.430121530077	1
0	3974	65.440274938471	1
0	3977	65.471790941343	1
0	3983	65.501381128668	1
0	3986	65.51547791711	1
0	3991	65.605110837612	1
0	3994	65.610807490859	1
0	3997	65.675524961263	1
0	4003	65.711421093101	1
0	4006	65.7783513803	1
0	4011	65.808748536223	1
0	4014	65.870092445182	1
0	4020	65.930998890714	1
0	4025	66.005357209892	1
0	4031	66.120331348667	1
0	4034	66.178673725771	1
0	4042	66.297623350904	1
0	4050	66.489107576668	1
0	4053	66.522447910506	1
0	4056	66.57926495888	1
0	4061	66.627056757631	1
0	4069	66.802428222133	1
0	4072	66.822413775925	1
0	4078	66.893614582487	1
0	4083	67.04898913269	1
0	4086	67.058022857098	1
0	4089	67.063875646993	1
0	4095	67.171768337843	1
0	4103	67.291169674903	1
0	4106	67.314311772099	1
0	4111	67.465133295262	1
0	4119	67.653045138683	1
0	4127	67.803286418054	1
0	4133	67.917655480113	1
0	4136	67.947687988142	1
0	4139	67.967334176732	1
0	4144	68.014144822055	1
0	4147	68.021386733066	1
0	4153	68.109962797669	1
0	4156	68.110936338603	1
0	4159	68.142794723391	1
0	4167	68.365403122335	1
0	4172	68.411742125089	1
0	4175	68.426067427227	1
0	4178	68.448014243316	1
0	4186	68.599060403438	1
0	4189	68.660652331816	1
0	4200	68.919897192694	1
0	4203	68.924460997644	1
0	4208	69.050050346078	1
0	4216	69.210892130987	1
0	4219	69.278387228352	1
0	4225	69.286395113946	1
0	4228	69.349788326595	1
0	4233	69.422942860508	1
0	4241	69.637252830551	1
0	4244	69.673897959734	1
0	4250	69.740921147392	1
0	4255	69.827087896572	1
0	4258	69.880628331681	1
0	4271	70.201109214642	1
0	4274	70.220238819232	1
0	4280	70.323963328642	1
0	4285	70.388454177759	1
0	4288	70.392054460734	1
0	4294	70.545139302628	1
0	4299	70.60142182281	1
0	4305	70.682711658929	1
0	4308	70.754050087209	1
0	4311	70.771469603246	1
0	4316	70.848294937433	1
0	4319	70.863823495983	1
0	4325	70.978203033895	1
0	4333	71.083031944391	1
0	4336	71.11554903144	1
0	4341	71.19303326939	1
0	4344	71.206828592583	1
0	4347	71.246234349778	1
0	4353	71.296103583065	1
0	4356	71.312004784745	1
0	4366	71.6252877337	1
0	4369	71.642707605358	1
0	4372	71.663426123583	1
0	4375	71.677284805725	1
0	4386	71.911608798734	1
0	4391	71.998102609677	1
0	4394	72.076586311636	1
0	4400	72.086266058867	1
0	4403	72.147314343367	1
0	4413	72.388715986418	1
0	4421	72.60245815546	1
0	4424	72.611119854905	1
0	4427	72.672480275879	1
0	4435	72.833613475791	1
0	4441	72.962409673299	1
0	4449	73.172073300651	1
0	4454	73.222993549338	1
0	4457	73.232805501601	1
0	4465	73.467192465681	1
0	4471	73.522758356997	1
0	4476	73.639884726492	1
0	4482	73.703982081018	1
0	4487	73.824253459401	1
0	4493	73.911050457603	1
0	4496	73.950758552605	1
0	4501	74.076722669667	1
0	4509	74.218101002621	1
0	4512	74.220845212664	1
0	4518	74.321922128974	1
0	4523	74.453374338782	1
0	4526	74.480820690982	1
0	4534	74.62647671214	1
0	4537	74.643976216962	1
0	4540	74.644957660602	1
0	4548	74.804113272881	1
0	4551	74.840971566842	1
0	4562	75.160797064519	1
0	4567	75.18730637466	1
0	4570	75.248580919146	1
0	4576	75.318583482758	1
0	4581	75.407983623026	1
0	4592	75.715291145305	1
0	4600	75.91028883649	1
0	4605	75.991890692886	1
0	4608	76.052996449015	1
0	4611	76.063251638315	1
0	4622	76.366645895555	1
0	4627	76.463846984661	1
0	4633	76.549590494922	1
0	4641	76.748384440406	1
0	4649	76.920291371585	1
0	4652	76.937445234322	1
0	4660	77.176963213261	1
0	4675	77.665313112296	1
0	4683	77.834336607772	1
0	4686	77.843219846037	1
0	4689	77.860585502358	1
0	4692	77.870507655006	1
0	4698	77.969635605582	1
0	4703	78.07004072297	1
0	4709	78.120862668375	1
0	4719	78.419040634108	1
0	4722	78.425517203387	1
0	4733	78.701577648955	1
0	4736	78.756748010214	1
0	4741	78.816056169947	1
0	4744	78.845989008189	1
0	4750	78.976072750935	1
0	4758	79.165145666378	1
0	4766	79.300717517763	1
0	4769	79.304104703287	1
0	4772	79.340775218666	1
0	4782	79.660151405934	1
0	4785	79.672908763314	1
0	4791	79.716816461873	1
0	4794	79.775493342541	1
0	4799	79.819608823614	1
0	4802	79.869329752248	1
0	4805	79.870976080646	1
0	4818	79.946872558071	1
0	4820	79.967357784786	1
0	4829	80.154021831804	1
0	4836	80.205314530987	1
0	4842	80.282160788726	1
0	4853	80.547079614949	1
0	4860	80.661107502641	1
0	4862	80.671600777374	1
0	4868	80.76555097596	1
0	4884	81.056142936326	1
0	4886	81.06651001999	1
0	4897	81.270139438717	1
0	4899	81.27979356662	1
0	4905	81.340336944784	1
0	4907	81.346096236466	1
0	4914	81.385652796506	1
0	4916	81.394703543521	1
0	4918	81.421197037285	1
0	4920	81.448269476359	1
0	4926	81.543581730186	1
0	4937	81.726535945772	1
0	4939	81.729899337864	1
0	4946	81.803791339858	1
0	4948	81.805364252235	1
0	4950	81.877328742004	1
0	4956	81.933329579337	1
0	4963	82.03826379593	1
0	4965	82.045313990766	1
0	4971	82.123969899955	1
0	4973	82.152997241467	1
0	4975	82.156297639973	1
0	4977	82.181292721638	1
0	4984	82.268078908627	1
0	4990	82.2972735158	1
0	4997	82.444715738278	1
0	4999	82.458763309974	1
0	5005	82.505960118751	1
0	5007	82.507171043257	1
0	5009	82.574706630274	1
0	5016	82.586978131006	1
0	5036	82.986734478678	1
0	5042	83.083093748307	1
0	5044	83.111151340925	1
0	5060	83.477107552771	1
0	5066	83.523999685498	1
0	5091	83.988027685093	1
0	5093	83.992701175267	1
0	5095	84.045304254843	1
0	5101	84.082420426923	1
0	5103	84.100208102709	1
0	5110	84.278301570198	1
0	5116	84.380123328079	1
0	5127	84.544641670786	1
0	5134	84.612036015208	1
0	5140	84.714207849949	1
0	5160	85.168990235135	1
0	5167	85.214893027884	1
0	5169	85.221646443572	1
0	5171	85.259152637884	1
0	5182	85.412046524955	1
0	5188	85.573912631597	1
0	5195	85.607936353558	1
0	5197	85.615241519273	1
0	5199	85.642872038566	1
0	5205	85.757938297859	1
0	5212	85.866558628975	1
0	5218	85.914479898423	1
0	5220	85.942724569619	1
0	5227	86.043217900525	1
0	5233	86.152837156626	1
0	5249	86.414401249868	1
0	5255	86.487239007171	1
0	5262	86.679612864238	1
0	5268	86.734793076402	1
0	5275	86.803644465206	1
0	5281	86.884542434719	1
0	5283	86.940375113645	1
0	5285	86.974209725515	1
0	5296	87.147121689283	1
0	5303	87.269734910506	1
0	5314	87.403762506704	1
0	5316	87.457352386238	1
0	5322	87.516618128032	1
0	5324	87.561332118292	1
0	5344	87.908396626346	1
0	5355	88.084805365565	1
0	5357	88.129929245414	1
0	5373	88.388911859964	1
0	5375	88.439584181354	1
0	5377	88.44429410846	1
0	5383	88.578496082578	1
0	5390	88.604974309912	1
0	5392	88.664591499052	1
0	5398	88.70744225947	1
0	5414	88.984356707754	1
0	5420	89.15307853663	1
0	5427	89.182815889421	1
0	5447	89.606117469054	1
0	5449	89.654205291484	1
0	5469	90.001490862074	1
0	5475	90.120939856425	1
0	5486	90.356273333232	1
0	5502	90.583644049901	1
0	5504	90.618820788444	1
0	5506	90.631724638762	1
0	5530	91.114696663559	1
0	5532	91.142343935213	1
0	5534	91.171034844751	1
0	5541	91.196946070339	1
0	5543	91.208140524453	1
0	5545	91.275378814657	1
0	5560	91.576875641876	1
0	5576	91.798997060196	1
0	5578	91.825578715098	1
0	5580	91.869912154698	1
0	5591	91.986955727699	1
0	5593	92.035607641675	1
0	5595	92.041620478588	1
0	5610	92.290183587023	1
0	5617	92.421379895131	1
0	5619	92.433463034757	1
0	5630	92.646933274211	1
0	5636	92.746663166628	1
0	5638	92.778468621147	1
0	5645	92.792718915712	1
0	5647	92.840370497809	1
0	5653	92.887250066973	1
0	5655	92.934137882536	1
0	5657	92.973354011498	1
0	5668	93.111499919483	1
0	5675	93.225479460149	1
0	5677	93.252635039317	1
0	5688	93.411370762286	1
0	5690	93.430227234711	1
0	5696	93.500331785644	1
0	5698	93.559986777332	1
0	5705	93.595118905486	1
0	5707	93.631426789504	1
0	5718	93.848549377639	1
0	5729	94.031302004421	1
0	5731	94.074668489958	1
0	5737	94.101815486601	1
0	5744	94.23590565906	1
0	5750	94.305699413943	1
0	5757	94.386748728661	1
0	5768	94.672491263443	1
0	5774	94.694995512829	1
0	5781	94.795507077686	1
0	5783	94.875029297817	1
0	5794	95.076987748139	1
0	5800	95.150310282007	1
0	5816	95.432001455003	1
0	5818	95.47489263858	1
0	5829	95.613828489275	1
0	5831	95.616321298848	1
0	5837	95.736577033319	1
0	5839	95.752691291202	1
0	5859	96.096785695961	1
0	5861	96.110925007234	1
0	5886	96.629437949537	1
0	5892	96.75250983464	1
0	5899	96.812625299278	1
0	5905	96.936093286883	1
0	5907	96.943443924625	1
0	5914	97.03805409875	1
0	5916	97.072697431499	1
0	5927	97.184143254671	1
0	5929	97.200672555903	1
0	5931	97.260005612729	1
0	5937	97.314045882489	1
0	5944	97.433144027829	1
0	5946	97.447218543372	1
0	5952	97.494752510336	1
0	5959	97.587416370366	1
0	5961	97.597955983357	1
0	5963	97.646213504873	1
0	5978	97.968745113245	1
0	5994	98.194492792321	1
0	5996	98.202011973237	1
0	6011	98.545574312485	1
0	6013	98.54752324178	1
0	6020	98.62668415124	1
0	6040	99.015775160281	1
0	6042	99.047909190568	1
0	6044	99.063982194625	1
0	6050	99.153687496036	1
0	6057	99.18362279633	1
0	6068	99.41069380707	1
0	6070	99.434968350806	1
0	6076	99.487179481247	1
0	6078	99.57390868313	1
0	6085	99.654222360322	1
0	6102	100.026163191412	1
0	6105	100.057860929401	1
0	6110	100.089745034242	1
0	6113	100.150523510654	1
0	6126	100.501429865754	1
0	6129	100.55279842708	1
0	6132	100.555381231523	1
0	6138	100.583938123573	1
0	6146	100.802902795029	1
0	6149	100.873397727167	1
0	6157	100.996706599889	1
0	6160	101.033868175372	1
0	6163	101.066409847088	1
0	6168	101.113096281444	1
0	6176	101.338345568451	1
0	6182	101.412783394591	1
0	6185	101.415471456542	1
0	6190	101.554339183929	1
0	6196	101.652592018201	1
0	6201	101.693164652588	1
0	6204	101.733144179836	1
0	6215	101.991055492915	1
0	6225	102.332547983158	1
0	6233	102.530829241185	1
0	6236	102.549290828476	1
0	6239	102.554282388719	1
0	6250	102.786034994976	1
0	6253	102.815290055095	1
0	6256	102.855328208241	1
0	6261	102.914411730281	1
0	6269	103.134444662325	1
0	6272	103.145496249985	1
0	6278	103.217332833506	1
0	6281	103.260176936385	1
0	6286	103.331640355123	1
0	6292	103.466385237492	1
0	6297	103.515296078554	1
0	6303	103.629400411979	1
0	6308	103.704921593755	1
0	6314	103.802309452903	1
0	6324	104.091821214605	1
0	6330	104.215791022667	1
0	6338	104.439155007777	1
0	6341	104.462086724941	1
0	6346	104.575132444772	1
0	6352	104.616941610666	1
0	6357	104.718836928774	1
0	6363	104.831612972131	1
0	6368	104.911100255738	1
0	6376	105.122490937203	1
0	6379	105.154330238809	1
0	6385	105.232785908501	1
0	6388	105.248834319237	1
0	6393	105.282060381595	1
0	6399	105.476065202583	1
0	6402	105.479135379884	1
0	6407	105.579936733932	1
0	6415	105.70384038467	1
0	6418	105.739456962826	1
0	6421	105.740248497477	1
0	6427	105.801907806329	1
0	6430	105.848537508973	1
0	6433	105.851020829748	1
0	6438	105.926637454527	1
0	6444	106.008296723412	1
0	6452	106.263544372767	1
0	6457	106.308353169605	1
0	6460	106.317728708366	1
0	6466	106.387586808974	1
0	6469	106.439664695461	1
0	6472	106.456344271273	1
0	6475	106.45880563568	1
0	6480	106.514232483021	1
0	6483	106.556180415368	1
0	6494	106.792809441753	1
0	6499	106.890156696118	1
0	6502	106.891011497983	1
0	6505	106.923732536116	1
0	6516	107.270671919994	1
0	6521	107.294212506644	1
0	6527	107.411619520323	1
0	6530	107.423915777012	1
0	6533	107.434387004355	1
0	6538	107.520458475106	1
0	6541	107.554675944268	1
0	6547	107.673508860297	1
0	6552	107.75096053909	1
0	6558	107.86242163939	1
0	6566	107.991210663301	1
0	6576	108.288531497249	1
0	6579	108.337775634887	1
0	6582	108.338046322345	1
0	6585	108.363804808979	1
0	6591	108.467989255461	1
0	6596	108.528660496385	1
0	6602	108.620387676076	1
0	6612	108.97823784866	1
0	6618	109.067090719893	1
0	6626	109.246558031293	1
0	6636	109.575622914319	1
0	6647	109.82188734126	1
0	6650	109.823588903633	1
0	6655	109.933635756681	1
0	6661	110.052867334103	1
0	6666	110.110968199649	1
0	6672	110.278996439657	1
0	6680	110.394543912532	1
0	6683	110.465839560445	1
0	6688	110.570422089724	1
0	6694	110.611063376399	1
0	6697	110.614016557515	1
0	6702	110.770482212585	1
0	6713	111.02247108197	1
0	6716	111.032701260071	1
0	6721	111.110889702381	1
0	6724	111.169235719612	1
0	6740	111.641875239298	1
0	6745	111.715262236	1
0	6748	111.763567538426	1
0	6756	111.881970312061	1
0	6762	112.046305635582	1
0	6765	112.055834083869	1
0	6770	112.117639321583	1
0	6773	112.143485246455	1
0	6781	112.318830058283	1
0	6784	112.371644457355	1
0	6790	112.449105830991	1
0	6795	112.546735033288	1
0	6803	112.765006422217	1
0	6814	112.983008466933	1
0	6822	113.195123912618	1
0	6827	113.291573888794	1
0	6830	113.331368728259	1
0	6833	113.345693598638	1
0	6839	113.397516383448	1
0	6852	113.791662251911	1
0	6855	113.870330563457	1
0	6863	114.075735811843	1
0	6868	114.172940708691	1
0	6874	114.242801065386	1
0	6879	114.29050084048	1
0	6887	114.546052612146	1
0	6893	114.624169491145	1
0	6898	114.702122994028	1
0	6901	114.715010858632	1
0	6909	114.971804121502	1
0	6917	115.085965673854	1
0	6923	115.263101005786	1
0	6928	115.296945119068	1
0	6939	115.642046132004	1
0	6942	115.646438855417	1
0	6952	115.898740601552	1
0	6955	115.911081548703	1
0	6958	115.914751455731	1
0	6961	115.926004450369	1
0	6964	115.945214007984	1
0	6970	115.98326510284	1
0	6973	116.032552979677	1
0	6976	116.060860223262	1
0	6986	116.364813382275	1
0	6992	116.447545974635	1
0	6997	116.483217599902	1
0	7005	116.720041205202	1
0	7008	116.737532231212	1
0	7014	116.824307745506	1
0	7022	117.041731036219	1
0	7027	117.132845617026	1
0	7033	117.191975895583	1
0	7036	117.21916247944	1
0	7044	117.457624013763	1
0	7049	117.544585549847	1
0	7052	117.562048329495	1
0	7055	117.577815534778	1
0	7063	117.686025723226	1
0	7066	117.726917476151	1
0	7072	117.784946434949	1