version 3
run General-0-20240512-21:06:44-7817
attr configname General
attr datetime 20240512-21:06:44
attr datetimef 20240512-210644
attr experiment General
attr inifile omnetpp.ini
attr iterationvars ""
attr iterationvarsd ""
attr iterationvarsf ""
attr measurement ""
attr network Network
attr processid 7817
attr repetition 0
attr replication #0
attr resultdir results
attr runnumber 0
attr seedset 0
config network Network
config sim-time-limit 200s
config Network.nodeTx.gen.generationInterval exponential(2)
config Network.nodeTx.gen.packetByteSize 12500
config Network.nodeTx.queue.bufferSize 2000000
config Network.queue.bufferSize 200
config Network.nodeRx.queue.bufferSize 200

vector 0 Network.nodeTx.gen "Sent packets" ETV
vector 1 Network.nodeTx.queue "Buffer Size" ETV
vector 2 Network.queue "Buffer Size" ETV
vector 3 Network.nodeRx.queue "Buffer Size" ETV
vector 4 Network.nodeRx.sink Delay ETV
vector 5 Network.nodeRx.sink PacketRecieved ETV
0	1	1.591749009132	1
0	12	3.3888697861	1
0	23	5.900731302195	1
0	34	9.619939726344	1
0	45	11.466385989286	1
0	56	15.369476661055	1
0	67	16.943878941019	1
0	78	20.701807049424	1
0	89	21.803904022765	1
0	100	23.757916875552	1
0	111	25.83423547688	1
0	122	26.804491804323	1
0	133	27.955530198089	1
0	144	28.661848476364	1
0	155	33.108897320437	1
0	161	33.225666658623	1
0	176	39.85549121848	1
0	187	40.492203500164	1
0	198	41.459407710061	1
0	209	42.758300406563	1
0	220	45.896092641809	1
0	231	49.240515042459	1
0	242	50.745863269085	1
0	253	52.053628403527	1
0	264	53.732494109327	1
0	275	54.730238127359	1
0	286	59.926746299057	1
0	297	63.543484827607	1
0	303	63.690855538537	1
0	318	64.514011531022	1
0	324	64.696333583271	1
0	339	66.785558599887	1
0	342	66.826409776685	1
0	359	67.744906051195	1
0	370	71.319881378072	1
0	381	77.620221235424	1
0	392	80.631789752699	1
0	401	80.934251460029	1
0	414	85.014879975913	1
0	425	89.096664407736	1
0	436	96.78710814602	1
0	447	98.070526491376	1
0	458	101.281005605499	1
0	469	104.509009755284	1
0	480	105.746868674537	1
0	491	107.216797516917	1
0	502	110.249869464897	1
0	513	112.521747348317	1
0	519	112.773496167193	1
0	535	115.32395157164	1
0	546	117.366815320338	1
0	557	119.111457710422	1
0	566	119.420917071422	1
0	579	120.962586388357	1
0	590	126.751427344331	1
0	601	129.594156704518	1
0	612	131.06981128803	1
0	618	131.293703609295	1
0	634	132.364835049751	1
0	645	133.648224453813	1
0	656	134.262785158118	1
0	667	134.675191722179	1
0	678	137.651701373682	1
0	689	140.32228174293	1
0	700	141.540446589296	1
0	711	142.028543570769	1
0	722	143.709212981993	1
0	728	143.999769036577	1
0	734	144.037706174979	1
0	753	144.821247796332	1
0	764	146.744009674464	1
0	773	147.068282653356	1
0	786	148.962276007706	1
0	797	149.465159871856	1
0	808	151.384255826592	1
0	819	152.361369925208	1
0	830	158.117199967763	1
0	841	162.775026716191	1
0	852	165.065304625591	1
0	863	166.260796779228	1
0	874	167.15183376933	1
0	885	169.050822936323	1
0	896	170.199887749805	1
0	907	174.852589873194	1
0	918	177.244805472108	1
0	924	177.453927923658	1
0	933	177.578158504591	1
0	950	184.5785858735	1
0	961	186.776410808602	1
0	972	188.894079071577	1
0	983	191.115273962951	1
0	992	191.490126094987	1
0	1005	191.962539507152	1
0	1016	192.849347564393	1
0	1022	193.12540494125	1
0	1038	195.903490320832	1
0	1049	196.661414249397	1
0	1060	198.53353736894	1
0	1071	199.437741489389	1
1	2	1.591749009132	1
1	13	3.3888697861	1
1	24	5.900731302195	1
1	35	9.619939726344	1
1	46	11.466385989286	1
1	57	15.369476661055	1
1	68	16.943878941019	1
1	79	20.701807049424	1
1	90	21.803904022765	1
1	101	23.757916875552	1
1	112	25.83423547688	1
1	123	26.804491804323	1
1	134	27.955530198089	1
1	145	28.661848476364	1
1	156	33.108897320437	1
1	162	33.225666658623	1
1	177	39.85549121848	1
1	188	40.492203500164	1
1	199	41.459407710061	1
1	210	42.758300406563	1
1	221	45.896092641809	1
1	232	49.240515042459	1
1	243	50.745863269085	1
1	254	52.053628403527	1
1	265	53.732494109327	1
1	276	54.730238127359	1
1	287	59.926746299057	1
1	298	63.543484827607	1
1	304	63.690855538537	1
1	319	64.514011531022	1
1	325	64.696333583271	1
1	340	66.785558599887	1
1	343	66.826409776685	1
1	360	67.744906051195	1
1	371	71.319881378072	1
1	382	77.620221235424	1
1	393	80.631789752699	1
1	402	80.934251460029	1
1	415	85.014879975913	1
1	426	89.096664407736	1
1	437	96.78710814602	1
1	448	98.070526491376	1
1	459	101.281005605499	1
1	470	104.509009755284	1
1	481	105.746868674537	1
1	492	107.216797516917	1
1	503	110.249869464897	1
1	514	112.521747348317	1
1	520	112.773496167193	1
1	536	115.32395157164	1
1	547	117.366815320338	1
1	558	119.111457710422	1
1	567	119.420917071422	1
1	580	120.962586388357	1
1	591	126.751427344331	1
1	602	129.594156704518	1
1	613	131.06981128803	1
1	619	131.293703609295	1
1	635	132.364835049751	1
1	646	133.648224453813	1
1	657	134.262785158118	1
1	668	134.675191722179	1
1	679	137.651701373682	1
1	690	140.32228174293	1
1	701	141.540446589296	1
1	712	142.028543570769	1
1	723	143.709212981993	1
1	729	143.999769036577	1
1	735	144.037706174979	1
1	754	144.821247796332	1
1	765	146.744009674464	1
1	774	147.068282653356	1
1	787	148.962276007706	1
1	798	149.465159871856	1
1	809	151.384255826592	1
1	820	152.361369925208	1
1	831	158.117199967763	1
1	842	162.775026716191	1
1	853	165.065304625591	1
1	864	166.260796779228	1
1	875	167.15183376933	1
1	886	169.050822936323	1
1	897	170.199887749805	1
1	908	174.852589873194	1
1	919	177.244805472108	1
1	925	177.453927923658	1
1	934	177.578158504591	1
1	951	184.5785858735	1
1	962	186.776410808602	1
1	973	188.894079071577	1
1	984	191.115273962951	1
1	993	191.490126094987	1
1	1006	191.962539507152	1
1	1017	192.849347564393	1
1	1023	193.12540494125	1
1	1039	195.903490320832	1
1	1050	196.661414249397	1
1	1061	198.53353736894	1
1	1072	199.437741489389	1
2	5	1.691849009132	1
2	16	3.4889697861	1
2	27	6.000831302195	1
2	38	9.720039726344	1
2	49	11.566485989286	1
2	60	15.469576661055	1
2	71	17.043978941019	1
2	82	20.801907049424	1
2	93	21.904004022765	1
2	104	23.858016875552	1
2	115	25.93433547688	1
2	126	26.904591804323	1
2	137	28.055630198089	1
2	148	28.761948476364	1
2	159	33.208997320437	1
2	165	33.325766658623	1
2	180	39.95559121848	1
2	191	40.592303500164	1
2	202	41.559507710061	1
2	213	42.858400406563	1
2	224	45.996192641809	1
2	235	49.340615042459	1
2	246	50.845963269085	1
2	257	52.153728403527	1
2	268	53.832594109327	1
2	279	54.830338127359	1
2	290	60.026846299057	1
2	301	63.643584827607	1
2	307	63.790955538537	1
2	322	64.614111531022	1
2	328	64.796433583271	1
2	345	66.885658599887	1
2	348	66.985658599887	1
2	363	67.845006051195	1
2	374	71.419981378072	1
2	385	77.720321235424	1
2	396	80.731889752699	1
2	407	81.034351460029	1
2	418	85.114979975913	1
2	429	89.196764407736	1
2	440	96.88720814602	1
2	451	98.170626491376	1
2	462	101.381105605499	1
2	473	104.609109755284	1
2	484	105.846968674537	1
2	495	107.316897516917	1
2	506	110.349969464897	1
2	517	112.621847348317	1
2	526	112.873596167193	1
2	539	115.42405157164	1
2	550	117.466915320338	1
2	561	119.211557710422	1
2	572	119.521017071422	1
2	583	121.062686388357	1
2	594	126.851527344331	1
2	605	129.694256704518	1
2	616	131.16991128803	1
2	625	131.393803609295	1
2	638	132.464935049751	1
2	649	133.748324453813	1
2	660	134.362885158118	1
2	671	134.775291722179	1
2	682	137.751801373682	1
2	693	140.42238174293	1
2	704	141.640546589296	1
2	715	142.128643570769	1
2	726	143.809312981993	1
2	737	144.099869036577	1
2	742	144.199869036577	1
2	757	144.921347796332	1
2	768	146.844109674464	1
2	779	147.168382653356	1
2	790	149.062376007706	1
2	801	149.565259871856	1
2	812	151.484355826592	1
2	823	152.461469925208	1
2	834	158.217299967763	1
2	845	162.875126716191	1
2	856	165.165404625591	1
2	867	166.360896779228	1
2	878	167.25193376933	1
2	889	169.150922936323	1
2	900	170.299987749805	1
2	911	174.952689873194	1
2	922	177.344905472108	1
2	931	177.554027923658	1
2	939	177.678258504591	1
2	954	184.6786858735	1
2	965	186.876510808602	1
2	976	188.994179071577	1
2	987	191.215373962951	1
2	998	191.590226094987	1
2	1009	192.062639507152	1
2	1020	192.949447564393	1
2	1029	193.22550494125	1
2	1042	196.003590320832	1
2	1053	196.761514249397	1
2	1064	198.63363736894	1
2	1075	199.537841489389	1
3	8	1.891949009132	1
3	19	3.6890697861	1
3	30	6.200931302195	1
3	41	9.920139726344	1
3	52	11.766585989286	1
3	63	15.669676661055	1
3	74	17.244078941019	1
3	85	21.002007049424	1
3	96	22.104104022765	1
3	107	24.058116875552	1
3	118	26.13443547688	1
3	129	27.104691804323	1
3	140	28.255730198089	1
3	151	28.962048476364	1
3	167	33.409097320437	1
3	172	33.609097320437	1
3	183	40.15569121848	1
3	194	40.792403500164	1
3	205	41.759607710061	1
3	216	43.058500406563	1
3	227	46.196292641809	1
3	238	49.540715042459	1
3	249	51.046063269085	1
3	260	52.353828403527	1
3	271	54.032694109327	1
3	282	55.030438127359	1
3	293	60.226946299057	1
3	309	63.843684827607	1
3	314	64.043684827607	1
3	330	64.814211531022	1
3	335	65.014211531022	1
3	350	67.085758599887	1
3	355	67.285758599887	1
3	366	68.045106051195	1
3	377	71.620081378072	1
3	388	77.920421235424	1
3	399	80.931989752699	1
3	410	81.234451460029	1
3	421	85.315079975913	1
3	432	89.396864407736	1
3	443	97.08730814602	1
3	454	98.370726491376	1
3	465	101.581205605499	1
3	476	104.809209755284	1
3	487	106.047068674537	1
3	498	107.516997516917	1
3	509	110.550069464897	1
3	523	112.821947348317	1
3	531	113.073696167193	1
3	542	115.62415157164	1
3	553	117.667015320338	1
3	564	119.411657710422	1
3	575	119.721117071422	1
3	586	121.262786388357	1
3	597	127.051627344331	1
3	608	129.894356704518	1
3	622	131.37001128803	1
3	630	131.593903609295	1
3	641	132.665035049751	1
3	652	133.948424453813	1
3	663	134.562985158118	1
3	674	134.975391722179	1
3	685	137.951901373682	1
3	696	140.62248174293	1
3	707	141.840646589296	1
3	718	142.328743570769	1
3	732	144.009412981993	1
3	744	144.299969036577	1
3	749	144.499969036577	1
3	760	145.121447796332	1
3	771	147.044209674464	1
3	782	147.368482653356	1
3	793	149.262476007706	1
3	804	149.765359871856	1
3	815	151.684455826592	1
3	826	152.661569925208	1
3	837	158.417399967763	1
3	848	163.075226716191	1
3	859	165.365504625591	1
3	870	166.560996779228	1
3	881	167.45203376933	1
3	892	169.351022936323	1
3	903	170.500087749805	1
3	914	175.152789873194	1
3	928	177.545005472108	1
3	941	177.754127923658	1
3	946	177.954127923658	1
3	957	184.8787858735	1
3	968	187.076610808602	1
3	979	189.194279071577	1
3	990	191.415473962951	1
3	1001	191.790326094987	1
3	1012	192.262739507152	1
3	1026	193.149547564393	1
3	1034	193.42560494125	1
3	1045	196.203690320832	1
3	1056	196.961614249397	1
3	1067	198.83373736894	1
3	1078	199.737941489389	1
4	10	1.991949009132	0.4002
4	21	3.7890697861	0.4002
4	32	6.300931302195	0.4002
4	43	10.020139726344	0.4002
4	54	11.866585989286	0.4002
4	65	15.769676661055	0.4002
4	76	17.344078941019	0.4002
4	87	21.102007049424	0.4002
4	98	22.204104022765	0.4002
4	109	24.158116875552	0.4002
4	120	26.23443547688	0.4002
4	131	27.204691804323	0.4002
4	142	28.355730198089	0.4002
4	153	29.062048476364	0.4002
4	169	33.509097320437	0.4002
4	174	33.709097320437	0.483430661814
4	185	40.25569121848	0.4002
4	196	40.892403500164	0.4002
4	207	41.859607710061	0.4002
4	218	43.158500406563	0.4002
4	229	46.296292641809	0.4002
4	240	49.640715042459	0.4002
4	251	51.146063269085	0.4002
4	262	52.453828403527	0.4002
4	273	54.132694109327	0.4002
4	284	55.130438127359	0.4002
4	295	60.326946299057	0.4002
4	311	63.943684827607	0.4002
4	316	64.143684827607	0.45282928907
4	332	64.914211531022	0.4002
4	337	65.114211531022	0.417877947751
4	352	67.185758599887	0.4002
4	357	67.385758599887	0.559348823202
4	368	68.145106051195	0.4002
4	379	71.720081378072	0.4002
4	390	78.020421235424	0.4002
4	404	81.031989752699	0.4002
4	412	81.334451460029	0.4002
4	423	85.415079975913	0.4002
4	434	89.496864407736	0.4002
4	445	97.18730814602	0.4002
4	456	98.470726491376	0.4002
4	467	101.681205605499	0.4002
4	478	104.909209755284	0.4002
4	489	106.147068674537	0.4002
4	500	107.616997516917	0.4002
4	511	110.650069464897	0.4002
4	528	112.921947348317	0.4002
4	533	113.173696167193	0.4002
4	544	115.72415157164	0.4002
4	555	117.767015320338	0.4002
4	569	119.511657710422	0.4002
4	577	119.821117071422	0.4002
4	588	121.362786388357	0.4002
4	599	127.151627344331	0.4002
4	610	129.994356704518	0.4002
4	627	131.47001128803	0.4002
4	632	131.693903609295	0.4002
4	643	132.765035049751	0.4002
4	654	134.048424453813	0.4002
4	665	134.662985158118	0.4002
4	676	135.075391722179	0.4002
4	687	138.051901373682	0.4002
4	698	140.72248174293	0.4002
4	709	141.940646589296	0.4002
4	720	142.428743570769	0.4002
4	739	144.109412981993	0.4002
4	746	144.399969036577	0.4002
4	751	144.599969036577	0.562262861598
4	762	145.221447796332	0.4002
4	776	147.144209674464	0.4002
4	784	147.468482653356	0.4002
4	795	149.362476007706	0.4002
4	806	149.865359871856	0.4002
4	817	151.784455826592	0.4002
4	828	152.761569925208	0.4002
4	839	158.517399967763	0.4002
4	850	163.175226716191	0.4002
4	861	165.465504625591	0.4002
4	872	166.660996779228	0.4002
4	883	167.55203376933	0.4002
4	894	169.451022936323	0.4002
4	905	170.600087749805	0.4002
4	916	175.252789873194	0.4002
4	936	177.645005472108	0.4002
4	943	177.854127923658	0.4002
4	948	178.054127923658	0.475969419067
4	959	184.9787858735	0.4002
4	970	187.176610808602	0.4002
4	981	189.294279071577	0.4002
4	995	191.515473962951	0.4002
4	1003	191.890326094987	0.4002
4	1014	192.362739507152	0.4002
4	1031	193.249547564393	0.4002
4	1036	193.52560494125	0.4002
4	1047	196.303690320832	0.4002
4	1058	197.061614249397	0.4002
4	1069	198.93373736894	0.4002
4	1080	199.837941489389	0.4002
5	10	1.991949009132	1
5	21	3.7890697861	1
5	32	6.300931302195	1
5	43	10.020139726344	1
5	54	11.866585989286	1
5	65	15.769676661055	1
5	76	17.344078941019	1
5	87	21.102007049424	1
5	98	22.204104022765	1
5	109	24.158116875552	1
5	120	26.23443547688	1
5	131	27.204691804323	1
5	142	28.355730198089	1
5	153	29.062048476364	1
5	169	33.509097320437	1
5	174	33.709097320437	1
5	185	40.25569121848	1
5	196	40.892403500164	1
5	207	41.859607710061	1
5	218	43.158500406563	1
5	229	46.296292641809	1
5	240	49.640715042459	1
5	251	51.146063269085	1
5	262	52.453828403527	1
5	273	54.132694109327	1
5	284	55.130438127359	1
5	295	60.326946299057	1
5	311	63.943684827607	1
5	316	64.143684827607	1
5	332	64.914211531022	1
5	337	65.114211531022	1
5	352	67.185758599887	1
5	357	67.385758599887	1
5	368	68.145106051195	1
5	379	71.720081378072	1
5	390	78.020421235424	1
5	404	81.031989752699	1
5	412	81.334451460029	1
5	423	85.415079975913	1
5	434	89.496864407736	1
5	445	97.18730814602	1
5	456	98.470726491376	1
5	467	101.681205605499	1
5	478	104.909209755284	1
5	489	106.147068674537	1
5	500	107.616997516917	1
5	511	110.650069464897	1
5	528	112.921947348317	1
5	533	113.173696167193	1
5	544	115.72415157164	1
5	555	117.767015320338	1
5	569	119.511657710422	1
5	577	119.821117071422	1
5	588	121.362786388357	1
5	599	127.151627344331	1
5	610	129.994356704518	1
5	627	131.47001128803	1
5	632	131.693903609295	1
5	643	132.765035049751	1
5	654	134.048424453813	1
5	665	134.662985158118	1
5	676	135.075391722179	1
5	687	138.051901373682	1
5	698	140.72248174293	1
5	709	141.940646589296	1
5	720	142.428743570769	1
5	739	144.109412981993	1
5	746	144.399969036577	1
5	751	144.599969036577	1
5	762	145.221447796332	1
5	776	147.144209674464	1
5	784	147.468482653356	1
5	795	149.362476007706	1
5	806	149.865359871856	1
5	817	151.784455826592	1
5	828	152.761569925208	1
5	839	158.517399967763	1
5	850	163.175226716191	1
5	861	165.465504625591	1
5	872	166.660996779228	1
5	883	167.55203376933	1
5	894	169.451022936323	1
5	905	170.600087749805	1
5	916	175.252789873194	1
5	936	177.645005472108	1
5	943	177.854127923658	1
5	948	178.054127923658	1
5	959	184.9787858735	1
5	970	187.176610808602	1
5	981	189.294279071577	1
5	995	191.515473962951	1
5	1003	191.890326094987	1
5	1014	192.362739507152	1
5	1031	193.249547564393	1
5	1036	193.52560494125	1
5	1047	196.303690320832	1
5	1058	197.061614249397	1
5	1069	198.93373736894	1
5	1080	199.837941489389	1

