version 3
run General-0-20240531-12:13:50-18651
attr configname General
attr datetime 20240531-12:13:50
attr datetimef 20240531-121350
attr experiment General
attr inifile omnetpp.ini
attr iterationvars ""
attr iterationvarsd ""
attr iterationvarsf ""
attr measurement ""
attr network Network
attr processid 18651
attr repetition 0
attr replication #0
attr resultdir results
attr runnumber 0
attr seedset 0
config network Network
config sim-time-limit 200s
config Network.node[0].app.interArrivalTime exponential(1)
config Network.node[0].app.packetByteSize 125000
config Network.node[0].app.destination 5

vector 0 Network.node[0].lnk[1] "Buffer Size" ETV
vector 1 Network.node[1].lnk[1] "Buffer Size" ETV
vector 2 Network.node[2].lnk[1] "Buffer Size" ETV
vector 3 Network.node[3].lnk[1] "Buffer Size" ETV
vector 4 Network.node[4].lnk[1] "Buffer Size" ETV
vector 5 Network.node[5].lnk[1] "Buffer Size" ETV
vector 6 Network.node[6].lnk[1] "Buffer Size" ETV
vector 7 Network.node[7].lnk[1] "Buffer Size" ETV
vector 8 Network.node[0].lnk[0] "Buffer Size" ETV
vector 9 Network.node[7].lnk[0] "Buffer Size" ETV
vector 10 Network.node[6].lnk[0] "Buffer Size" ETV
0	9	0	1
0	17	0	0
0	56	0.0001	1
0	64	0.0001	0
0	95	0.0002	1
0	103	0.0002	0
0	134	0.0003	1
0	142	0.0003	0
0	173	0.0004	1
0	181	0.0004	0
0	212	0.0005	1
0	220	0.0005	0
0	251	0.0006	1
0	259	0.0006	0
0	290	0.0007	1
0	298	0.0007	0
1	10	0	1
1	18	0	0
1	49	0.0001	1
1	57	0.0001	0
1	96	0.0002	1
1	104	0.0002	0
1	135	0.0003	1
1	143	0.0003	0
1	174	0.0004	1
1	182	0.0004	0
1	213	0.0005	1
1	221	0.0005	0
1	252	0.0006	1
1	260	0.0006	0
1	291	0.0007	1
1	299	0.0007	0
2	11	0	1
2	19	0	0
2	50	0.0001	1
2	58	0.0001	0
2	89	0.0002	1
2	97	0.0002	0
2	136	0.0003	1
2	144	0.0003	0
2	175	0.0004	1
2	183	0.0004	0
2	214	0.0005	1
2	222	0.0005	0
2	253	0.0006	1
2	261	0.0006	0
2	292	0.0007	1
2	300	0.0007	0
3	12	0	1
3	20	0	0
3	51	0.0001	1
3	59	0.0001	0
3	90	0.0002	1
3	98	0.0002	0
3	129	0.0003	1
3	137	0.0003	0
3	176	0.0004	1
3	184	0.0004	0
3	215	0.0005	1
3	223	0.0005	0
3	254	0.0006	1
3	262	0.0006	0
3	293	0.0007	1
3	301	0.0007	0
4	13	0	1
4	21	0	0
4	52	0.0001	1
4	60	0.0001	0
4	91	0.0002	1
4	99	0.0002	0
4	130	0.0003	1
4	138	0.0003	0
4	169	0.0004	1
4	177	0.0004	0
4	216	0.0005	1
4	224	0.0005	0
4	255	0.0006	1
4	263	0.0006	0
4	294	0.0007	1
4	302	0.0007	0
5	14	0	1
5	22	0	0
5	53	0.0001	1
5	61	0.0001	0
5	92	0.0002	1
5	100	0.0002	0
5	131	0.0003	1
5	139	0.0003	0
5	170	0.0004	1
5	178	0.0004	0
5	209	0.0005	1
5	217	0.0005	0
5	256	0.0006	1
5	264	0.0006	0
5	295	0.0007	1
5	303	0.0007	0
6	15	0	1
6	23	0	0
6	54	0.0001	1
6	62	0.0001	0
6	93	0.0002	1
6	101	0.0002	0
6	132	0.0003	1
6	140	0.0003	0
6	171	0.0004	1
6	179	0.0004	0
6	210	0.0005	1
6	218	0.0005	0
6	249	0.0006	1
6	257	0.0006	0
6	296	0.0007	1
6	304	0.0007	0
7	16	0	1
7	24	0	0
7	55	0.0001	1
7	63	0.0001	0
7	94	0.0002	1
7	102	0.0002	0
7	133	0.0003	1
7	141	0.0003	0
7	172	0.0004	1
7	180	0.0004	0
7	211	0.0005	1
7	219	0.0005	0
7	250	0.0006	1
7	258	0.0006	0
7	289	0.0007	1
7	297	0.0007	0
8	331	0.898560388484	1
8	332	0.898560388484	0
8	340	2.154491146531	1
8	341	2.154491146531	0
9	336	1.898660388484	1
9	337	1.898660388484	0
10	345	2.898760388484	1
10	346	2.898760388484	0

