version 3
run General-0-20240512-13:30:50-13037
attr configname General
attr datetime 20240512-13:30:50
attr datetimef 20240512-133050
attr experiment General
attr inifile omnetpp.ini
attr iterationvars ""
attr iterationvarsd ""
attr iterationvarsf ""
attr measurement ""
attr network Network
attr processid 13037
attr repetition 0
attr replication #0
attr resultdir results
attr runnumber 0
attr seedset 0
config network Network
config sim-time-limit 200s
config Network.nodeTx.gen.generationInterval exponential(2)
config Network.nodeTx.gen.packetByteSize 12500
config Network.nodeTx.queue.bufferSize 2000000
config Network.queue.bufferSize 200
config Network.nodeRx.queue.bufferSize 200

vector 0 Network.nodeTx.gen "Sent packets" ETV
vector 1 Network.nodeTx.queue "Buffer Size" ETV
vector 2 Network.queue "Buffer Size" ETV
vector 3 Network.nodeRx.queue "Buffer Size" ETV
vector 4 Network.nodeRx.sink Delay ETV
vector 5 Network.nodeRx.sink PacketRecieved ETV
0	1	1.591749009132	1
0	12	3.3888697861	1
0	23	5.900731302195	1
0	34	9.619939726344	1
0	45	11.466385989286	1
0	56	15.369476661055	1
0	67	16.943878941019	1
0	78	20.701807049424	1
0	89	21.803904022765	1
0	100	23.757916875552	1
0	111	25.83423547688	1
0	122	26.804491804323	1
0	133	27.955530198089	1
0	144	28.661848476364	1
0	155	33.108897320437	1
0	161	33.225666658623	1
0	176	39.85549121848	1
0	187	40.492203500164	1
0	198	41.459407710061	1
0	209	42.758300406563	1
0	220	45.896092641809	1
0	231	49.240515042459	1
0	242	50.745863269085	1
0	253	52.053628403527	1
0	264	53.732494109327	1
0	275	54.730238127359	1
0	286	59.926746299057	1
0	297	63.543484827607	1
0	303	63.690855538537	1
0	318	64.514011531022	1
0	324	64.696333583271	1
0	339	66.785558599887	1
0	342	66.826409776685	1
0	358	67.744906051195	1
0	369	71.319881378072	1
0	380	77.620221235424	1
0	391	80.631789752699	1
0	400	80.934251460029	1
0	413	85.014879975913	1
0	424	89.096664407736	1
0	435	96.78710814602	1
0	446	98.070526491376	1
0	457	101.281005605499	1
0	468	104.509009755284	1
0	479	105.746868674537	1
0	490	107.216797516917	1
0	501	110.249869464897	1
0	512	112.521747348317	1
0	521	112.773496167193	1
0	534	115.32395157164	1
0	545	117.366815320338	1
0	556	119.111457710422	1
0	565	119.420917071422	1
0	578	120.962586388357	1
0	589	126.751427344331	1
0	600	129.594156704518	1
0	611	131.06981128803	1
0	620	131.293703609295	1
0	633	132.364835049751	1
0	644	133.648224453813	1
0	655	134.262785158118	1
0	666	134.675191722179	1
0	677	137.651701373682	1
0	688	140.32228174293	1
0	699	141.540446589296	1
0	710	142.028543570769	1
0	721	143.709212981993	1
0	730	143.999769036577	1
0	733	144.037706174979	1
0	751	144.821247796332	1
0	762	146.744009674464	1
0	771	147.068282653356	1
0	784	148.962276007706	1
0	795	149.465159871856	1
0	806	151.384255826592	1
0	817	152.361369925208	1
0	828	158.117199967763	1
0	839	162.775026716191	1
0	850	165.065304625591	1
0	861	166.260796779228	1
0	872	167.15183376933	1
0	883	169.050822936323	1
0	894	170.199887749805	1
0	905	174.852589873194	1
0	916	177.244805472108	1
0	925	177.453927923658	1
0	931	177.578158504591	1
0	948	184.5785858735	1
0	959	186.776410808602	1
0	970	188.894079071577	1
0	981	191.115273962951	1
0	990	191.490126094987	1
0	1003	191.962539507152	1
0	1014	192.849347564393	1
0	1023	193.12540494125	1
0	1036	195.903490320832	1
0	1047	196.661414249397	1
0	1058	198.53353736894	1
0	1069	199.437741489389	1
1	2	1.591749009132	1
1	13	3.3888697861	1
1	24	5.900731302195	1
1	35	9.619939726344	1
1	46	11.466385989286	1
1	57	15.369476661055	1
1	68	16.943878941019	1
1	79	20.701807049424	1
1	90	21.803904022765	1
1	101	23.757916875552	1
1	112	25.83423547688	1
1	123	26.804491804323	1
1	134	27.955530198089	1
1	145	28.661848476364	1
1	156	33.108897320437	1
1	162	33.225666658623	1
1	177	39.85549121848	1
1	188	40.492203500164	1
1	199	41.459407710061	1
1	210	42.758300406563	1
1	221	45.896092641809	1
1	232	49.240515042459	1
1	243	50.745863269085	1
1	254	52.053628403527	1
1	265	53.732494109327	1
1	276	54.730238127359	1
1	287	59.926746299057	1
1	298	63.543484827607	1
1	304	63.690855538537	1
1	319	64.514011531022	1
1	325	64.696333583271	1
1	340	66.785558599887	1
1	343	66.826409776685	1
1	359	67.744906051195	1
1	370	71.319881378072	1
1	381	77.620221235424	1
1	392	80.631789752699	1
1	401	80.934251460029	1
1	414	85.014879975913	1
1	425	89.096664407736	1
1	436	96.78710814602	1
1	447	98.070526491376	1
1	458	101.281005605499	1
1	469	104.509009755284	1
1	480	105.746868674537	1
1	491	107.216797516917	1
1	502	110.249869464897	1
1	513	112.521747348317	1
1	522	112.773496167193	1
1	535	115.32395157164	1
1	546	117.366815320338	1
1	557	119.111457710422	1
1	566	119.420917071422	1
1	579	120.962586388357	1
1	590	126.751427344331	1
1	601	129.594156704518	1
1	612	131.06981128803	1
1	621	131.293703609295	1
1	634	132.364835049751	1
1	645	133.648224453813	1
1	656	134.262785158118	1
1	667	134.675191722179	1
1	678	137.651701373682	1
1	689	140.32228174293	1
1	700	141.540446589296	1
1	711	142.028543570769	1
1	722	143.709212981993	1
1	731	143.999769036577	1
1	734	144.037706174979	1
1	752	144.821247796332	1
1	763	146.744009674464	1
1	772	147.068282653356	1
1	785	148.962276007706	1
1	796	149.465159871856	1
1	807	151.384255826592	1
1	818	152.361369925208	1
1	829	158.117199967763	1
1	840	162.775026716191	1
1	851	165.065304625591	1
1	862	166.260796779228	1
1	873	167.15183376933	1
1	884	169.050822936323	1
1	895	170.199887749805	1
1	906	174.852589873194	1
1	917	177.244805472108	1
1	926	177.453927923658	1
1	932	177.578158504591	1
1	949	184.5785858735	1
1	960	186.776410808602	1
1	971	188.894079071577	1
1	982	191.115273962951	1
1	991	191.490126094987	1
1	1004	191.962539507152	1
1	1015	192.849347564393	1
1	1024	193.12540494125	1
1	1037	195.903490320832	1
1	1048	196.661414249397	1
1	1059	198.53353736894	1
1	1070	199.437741489389	1
2	5	1.691849009132	1
2	16	3.4889697861	1
2	27	6.000831302195	1
2	38	9.720039726344	1
2	49	11.566485989286	1
2	60	15.469576661055	1
2	71	17.043978941019	1
2	82	20.801907049424	1
2	93	21.904004022765	1
2	104	23.858016875552	1
2	115	25.93433547688	1
2	126	26.904591804323	1
2	137	28.055630198089	1
2	148	28.761948476364	1
2	159	33.208997320437	1
2	168	33.325766658623	1
2	180	39.95559121848	1
2	191	40.592303500164	1
2	202	41.559507710061	1
2	213	42.858400406563	1
2	224	45.996192641809	1
2	235	49.340615042459	1
2	246	50.845963269085	1
2	257	52.153728403527	1
2	268	53.832594109327	1
2	279	54.830338127359	1
2	290	60.026846299057	1
2	301	63.643584827607	1
2	310	63.790955538537	1
2	322	64.614111531022	1
2	331	64.796433583271	1
2	345	66.885658599887	1
2	348	66.985658599887	1
2	362	67.845006051195	1
2	373	71.419981378072	1
2	384	77.720321235424	1
2	395	80.731889752699	1
2	406	81.034351460029	1
2	417	85.114979975913	1
2	428	89.196764407736	1
2	439	96.88720814602	1
2	450	98.170626491376	1
2	461	101.381105605499	1
2	472	104.609109755284	1
2	483	105.846968674537	1
2	494	107.316897516917	1
2	505	110.349969464897	1
2	516	112.621847348317	1
2	525	112.873596167193	1
2	538	115.42405157164	1
2	549	117.466915320338	1
2	560	119.211557710422	1
2	571	119.521017071422	1
2	582	121.062686388357	1
2	593	126.851527344331	1
2	604	129.694256704518	1
2	615	131.16991128803	1
2	624	131.393803609295	1
2	637	132.464935049751	1
2	648	133.748324453813	1
2	659	134.362885158118	1
2	670	134.775291722179	1
2	681	137.751801373682	1
2	692	140.42238174293	1
2	703	141.640546589296	1
2	714	142.128643570769	1
2	725	143.809312981993	1
2	736	144.099869036577	1
2	741	144.199869036577	1
2	755	144.921347796332	1
2	766	146.844109674464	1
2	777	147.168382653356	1
2	788	149.062376007706	1
2	799	149.565259871856	1
2	810	151.484355826592	1
2	821	152.461469925208	1
2	832	158.217299967763	1
2	843	162.875126716191	1
2	854	165.165404625591	1
2	865	166.360896779228	1
2	876	167.25193376933	1
2	887	169.150922936323	1
2	898	170.299987749805	1
2	909	174.952689873194	1
2	920	177.344905472108	1
2	929	177.554027923658	1
2	940	177.678258504591	1
2	952	184.6786858735	1
2	963	186.876510808602	1
2	974	188.994179071577	1
2	985	191.215373962951	1
2	996	191.590226094987	1
2	1007	192.062639507152	1
2	1018	192.949447564393	1
2	1027	193.22550494125	1
2	1040	196.003590320832	1
2	1051	196.761514249397	1
2	1062	198.63363736894	1
2	1073	199.537841489389	1
3	8	1.791949009132	1
3	19	3.5890697861	1
3	30	6.100931302195	1
3	41	9.820139726344	1
3	52	11.666585989286	1
3	63	15.569676661055	1
3	74	17.144078941019	1
3	85	20.902007049424	1
3	96	22.004104022765	1
3	107	23.958116875552	1
3	118	26.03443547688	1
3	129	27.004691804323	1
3	140	28.155730198089	1
3	151	28.862048476364	1
3	165	33.309097320437	1
3	171	33.425866658623	1
3	183	40.05569121848	1
3	194	40.692403500164	1
3	205	41.659607710061	1
3	216	42.958500406563	1
3	227	46.096292641809	1
3	238	49.440715042459	1
3	249	50.946063269085	1
3	260	52.253828403527	1
3	271	53.932694109327	1
3	282	54.930438127359	1
3	293	60.126946299057	1
3	307	63.743684827607	1
3	313	63.891055538537	1
3	328	64.714211531022	1
3	334	64.896533583271	1
3	350	66.985758599887	1
3	353	67.085758599887	1
3	365	67.945106051195	1
3	376	71.520081378072	1
3	387	77.820421235424	1
3	398	80.831989752699	1
3	409	81.134451460029	1
3	420	85.215079975913	1
3	431	89.296864407736	1
3	442	96.98730814602	1
3	453	98.270726491376	1
3	464	101.481205605499	1
3	475	104.709209755284	1
3	486	105.947068674537	1
3	497	107.416997516917	1
3	508	110.450069464897	1
3	519	112.721947348317	1
3	530	112.973696167193	1
3	541	115.52415157164	1
3	552	117.567015320338	1
3	563	119.311657710422	1
3	574	119.621117071422	1
3	585	121.162786388357	1
3	596	126.951627344331	1
3	607	129.794356704518	1
3	618	131.27001128803	1
3	629	131.493903609295	1
3	640	132.565035049751	1
3	651	133.848424453813	1
3	662	134.462985158118	1
3	673	134.875391722179	1
3	684	137.851901373682	1
3	695	140.52248174293	1
3	706	141.740646589296	1
3	717	142.228743570769	1
3	728	143.909412981993	1
3	743	144.199969036577	1
3	746	144.299969036577	1
3	758	145.021447796332	1
3	769	146.944209674464	1
3	780	147.268482653356	1
3	791	149.162476007706	1
3	802	149.665359871856	1
3	813	151.584455826592	1
3	824	152.561569925208	1
3	835	158.317399967763	1
3	846	162.975226716191	1
3	857	165.265504625591	1
3	868	166.460996779228	1
3	879	167.35203376933	1
3	890	169.251022936323	1
3	901	170.400087749805	1
3	912	175.052789873194	1
3	923	177.445005472108	1
3	937	177.654127923658	1
3	943	177.778358504591	1
3	955	184.7787858735	1
3	966	186.976610808602	1
3	977	189.094279071577	1
3	988	191.315473962951	1
3	999	191.690326094987	1
3	1010	192.162739507152	1
3	1021	193.049547564393	1
3	1032	193.32560494125	1
3	1043	196.103690320832	1
3	1054	196.861614249397	1
3	1065	198.73373736894	1
3	1076	199.637941489389	1
4	10	1.991949009132	0.4002
4	21	3.7890697861	0.4002
4	32	6.300931302195	0.4002
4	43	10.020139726344	0.4002
4	54	11.866585989286	0.4002
4	65	15.769676661055	0.4002
4	76	17.344078941019	0.4002
4	87	21.102007049424	0.4002
4	98	22.204104022765	0.4002
4	109	24.158116875552	0.4002
4	120	26.23443547688	0.4002
4	131	27.204691804323	0.4002
4	142	28.355730198089	0.4002
4	153	29.062048476364	0.4002
4	172	33.509097320437	0.4002
4	174	33.709097320437	0.483430661814
4	185	40.25569121848	0.4002
4	196	40.892403500164	0.4002
4	207	41.859607710061	0.4002
4	218	43.158500406563	0.4002
4	229	46.296292641809	0.4002
4	240	49.640715042459	0.4002
4	251	51.146063269085	0.4002
4	262	52.453828403527	0.4002
4	273	54.132694109327	0.4002
4	284	55.130438127359	0.4002
4	295	60.326946299057	0.4002
4	314	63.943684827607	0.4002
4	316	64.143684827607	0.45282928907
4	335	64.914211531022	0.4002
4	337	65.114211531022	0.417877947751
4	354	67.185758599887	0.4002
4	356	67.385758599887	0.559348823202
4	367	68.145106051195	0.4002
4	378	71.720081378072	0.4002
4	389	78.020421235424	0.4002
4	403	81.031989752699	0.4002
4	411	81.334451460029	0.4002
4	422	85.415079975913	0.4002
4	433	89.496864407736	0.4002
4	444	97.18730814602	0.4002
4	455	98.470726491376	0.4002
4	466	101.681205605499	0.4002
4	477	104.909209755284	0.4002
4	488	106.147068674537	0.4002
4	499	107.616997516917	0.4002
4	510	110.650069464897	0.4002
4	527	112.921947348317	0.4002
4	532	113.173696167193	0.4002
4	543	115.72415157164	0.4002
4	554	117.767015320338	0.4002
4	568	119.511657710422	0.4002
4	576	119.821117071422	0.4002
4	587	121.362786388357	0.4002
4	598	127.151627344331	0.4002
4	609	129.994356704518	0.4002
4	626	131.47001128803	0.4002
4	631	131.693903609295	0.4002
4	642	132.765035049751	0.4002
4	653	134.048424453813	0.4002
4	664	134.662985158118	0.4002
4	675	135.075391722179	0.4002
4	686	138.051901373682	0.4002
4	697	140.72248174293	0.4002
4	708	141.940646589296	0.4002
4	719	142.428743570769	0.4002
4	738	144.109412981993	0.4002
4	747	144.399969036577	0.4002
4	749	144.599969036577	0.562262861598
4	760	145.221447796332	0.4002
4	774	147.144209674464	0.4002
4	782	147.468482653356	0.4002
4	793	149.362476007706	0.4002
4	804	149.865359871856	0.4002
4	815	151.784455826592	0.4002
4	826	152.761569925208	0.4002
4	837	158.517399967763	0.4002
4	848	163.175226716191	0.4002
4	859	165.465504625591	0.4002
4	870	166.660996779228	0.4002
4	881	167.55203376933	0.4002
4	892	169.451022936323	0.4002
4	903	170.600087749805	0.4002
4	914	175.252789873194	0.4002
4	934	177.645005472108	0.4002
4	944	177.854127923658	0.4002
4	946	178.054127923658	0.475969419067
4	957	184.9787858735	0.4002
4	968	187.176610808602	0.4002
4	979	189.294279071577	0.4002
4	993	191.515473962951	0.4002
4	1001	191.890326094987	0.4002
4	1012	192.362739507152	0.4002
4	1029	193.249547564393	0.4002
4	1034	193.52560494125	0.4002
4	1045	196.303690320832	0.4002
4	1056	197.061614249397	0.4002
4	1067	198.93373736894	0.4002
4	1078	199.837941489389	0.4002
5	10	1.991949009132	1
5	21	3.7890697861	1
5	32	6.300931302195	1
5	43	10.020139726344	1
5	54	11.866585989286	1
5	65	15.769676661055	1
5	76	17.344078941019	1
5	87	21.102007049424	1
5	98	22.204104022765	1
5	109	24.158116875552	1
5	120	26.23443547688	1
5	131	27.204691804323	1
5	142	28.355730198089	1
5	153	29.062048476364	1
5	172	33.509097320437	1
5	174	33.709097320437	1
5	185	40.25569121848	1
5	196	40.892403500164	1
5	207	41.859607710061	1
5	218	43.158500406563	1
5	229	46.296292641809	1
5	240	49.640715042459	1
5	251	51.146063269085	1
5	262	52.453828403527	1
5	273	54.132694109327	1
5	284	55.130438127359	1
5	295	60.326946299057	1
5	314	63.943684827607	1
5	316	64.143684827607	1
5	335	64.914211531022	1
5	337	65.114211531022	1
5	354	67.185758599887	1
5	356	67.385758599887	1
5	367	68.145106051195	1
5	378	71.720081378072	1
5	389	78.020421235424	1
5	403	81.031989752699	1
5	411	81.334451460029	1
5	422	85.415079975913	1
5	433	89.496864407736	1
5	444	97.18730814602	1
5	455	98.470726491376	1
5	466	101.681205605499	1
5	477	104.909209755284	1
5	488	106.147068674537	1
5	499	107.616997516917	1
5	510	110.650069464897	1
5	527	112.921947348317	1
5	532	113.173696167193	1
5	543	115.72415157164	1
5	554	117.767015320338	1
5	568	119.511657710422	1
5	576	119.821117071422	1
5	587	121.362786388357	1
5	598	127.151627344331	1
5	609	129.994356704518	1
5	626	131.47001128803	1
5	631	131.693903609295	1
5	642	132.765035049751	1
5	653	134.048424453813	1
5	664	134.662985158118	1
5	675	135.075391722179	1
5	686	138.051901373682	1
5	697	140.72248174293	1
5	708	141.940646589296	1
5	719	142.428743570769	1
5	738	144.109412981993	1
5	747	144.399969036577	1
5	749	144.599969036577	1
5	760	145.221447796332	1
5	774	147.144209674464	1
5	782	147.468482653356	1
5	793	149.362476007706	1
5	804	149.865359871856	1
5	815	151.784455826592	1
5	826	152.761569925208	1
5	837	158.517399967763	1
5	848	163.175226716191	1
5	859	165.465504625591	1
5	870	166.660996779228	1
5	881	167.55203376933	1
5	892	169.451022936323	1
5	903	170.600087749805	1
5	914	175.252789873194	1
5	934	177.645005472108	1
5	944	177.854127923658	1
5	946	178.054127923658	1
5	957	184.9787858735	1
5	968	187.176610808602	1
5	979	189.294279071577	1
5	993	191.515473962951	1
5	1001	191.890326094987	1
5	1012	192.362739507152	1
5	1029	193.249547564393	1
5	1034	193.52560494125	1
5	1045	196.303690320832	1
5	1056	197.061614249397	1
5	1067	198.93373736894	1
5	1078	199.837941489389	1

