version 3
run General-0-20240510-22:41:08-22598
attr configname General
attr datetime 20240510-22:41:08
attr datetimef 20240510-224108
attr experiment General
attr inifile omnetpp.ini
attr iterationvars ""
attr iterationvarsd ""
attr iterationvarsf ""
attr measurement ""
attr network Network
attr processid 22598
attr repetition 0
attr replication #0
attr resultdir results
attr runnumber 0
attr seedset 0
config network Network
config sim-time-limit 200s
config Network.nodeTx.gen.generationInterval exponential(0.01)
config Network.nodeTx.gen.packetByteSize 12500
config Network.nodeTx.traTx.bufferSize 2000000
config Network.dataQueue.bufferSize 3
config Network.feedbackQueue.bufferSize 3
config Network.nodeRx.traRx.bufferSize 3

vector 0 Network.nodeTx.traTx "Buffer Size" ETV
vector 1 Network.dataQueue "Buffer Size" ETV
vector 2 Network.feedbackQueue "Buffer Size" ETV
vector 3 Network.nodeRx.traRx "Buffer Size" ETV
vector 4 Network.nodeRx.sink Delay ETV
0	2	0.007958745046	1
0	14	0.016944348931	1
0	16	0.029503656511	2
0	18	0.048099698632	3
0	20	0.057331929947	4
0	22	0.076847383306	5
0	24	0.084719394706	6
0	26	0.103509035248	7
0	31	0.109019520115	7
0	33	0.118789584379	8
0	35	0.129171177386	9
0	37	0.134022459023	10
0	39	0.139777650992	11
0	41	0.143309242383	12
0	43	0.165544486603	13
0	45	0.166128333294	14
0	47	0.199277456093	15
0	49	0.202461017501	16
0	51	0.20729703855	17
0	56	0.213791502033	18
0	59	0.229480463209	19
0	62	0.246202575212	20
0	65	0.253729316345	21
0	68	0.260268142017	22
0	71	0.268662470546	23
0	74	0.273651190636	24
0	77	0.299633731494	25
0	83	0.317717424137	26
0	86	0.318454277692	27
0	89	0.322570057654	28
0	92	0.323481667915	29
0	95	0.333927792998	30
0	98	0.334132048882	31
0	101	0.338724530255	32
0	104	0.356599406889	33
0	107	0.388101106176	34
0	110	0.403158948762	35
0	113	0.404671257299	36
0	118	0.425074399878	37
0	121	0.445483322037	38
0	124	0.483935540728	39
0	127	0.490352632455	40
0	130	0.506405028026	41
0	143	0.522545048775	41
0	145	0.528734343371	42
0	147	0.536083987583	43
0	149	0.551249347323	44
0	151	0.56260873674	45
0	153	0.563867480834	46
0	155	0.576619757856	47
0	157	0.586834076599	48
0	159	0.595557288549	49
0	161	0.597104585354	50
0	163	0.604812931939	51
0	170	0.633757136719	51
0	172	0.64797078352	52
0	174	0.655349056438	53
0	176	0.656468518044	54
0	178	0.661824175246	55
0	180	0.668241122266	56
0	182	0.671313925788	57
0	184	0.673375958608	58
0	186	0.688258506866	59
0	188	0.701611408712	60
0	190	0.707702232944	61
0	195	0.710142717851	62
0	198	0.718546064907	63
0	201	0.71999884518	64
0	204	0.720188530872	65
0	207	0.724106238979	66
0	210	0.73372004837	67
0	213	0.735341413264	68
0	216	0.744811380036	69
0	219	0.747325799357	70
0	222	0.756921279131	71
0	225	0.761806849624	72
0	228	0.790585999837	73
0	234	0.813875133579	74
0	237	0.825326523126	75
0	240	0.831303983894	76
0	243	0.835759168845	77
0	246	0.84525411468	78
0	249	0.850999438747	79
0	252	0.874262949364	80
0	255	0.886224027359	81
0	258	0.887269639617	82
0	261	0.887890792522	83
0	266	0.922892929367	84
0	269	0.933882054043	85
0	272	0.944470395358	86
0	275	0.955576369815	87
0	278	0.957450630475	88
0	281	0.959812697536	89
0	284	0.964246737822	90
0	287	0.965627024706	91
0	290	0.979517451604	92
0	293	0.983307071247	93
0	296	0.992667686845	94
0	299	0.997188707447	95
0	302	1.00111983302	96
0	308	1.009564110955	97
0	318	1.009955942519	97
0	320	1.015729185627	98
0	322	1.025787895679	99
0	324	1.070332864141	100
0	326	1.102262330562	101
0	328	1.103338681644	102
0	335	1.113916945778	102
0	337	1.116259960966	103
0	339	1.12634015342	104
0	341	1.128099288874	105
0	343	1.181700292376	106
0	345	1.192287719527	107
0	347	1.201006878063	108
0	349	1.203927683396	109
0	351	1.209278330167	110
0	356	1.215557745977	111
0	359	1.221995555993	112
0	362	1.224798326078	113
0	365	1.234566966819	114
0	368	1.23629824138	115
0	371	1.240423253679	116
0	374	1.241592807777	117
0	377	1.252824490792	118
0	380	1.263505212763	119
0	383	1.267320771197	120
0	386	1.26880789389	121
0	389	1.283874247223	122
0	392	1.286063053188	123
0	398	1.315934952107	124
0	401	1.320535091684	125
0	404	1.331397785493	126
0	407	1.34860110207	127
0	410	1.348737747854	128
0	413	1.349759196669	129
0	416	1.359510216011	130
0	419	1.377708405204	131
0	422	1.388906548862	132
0	425	1.389916896615	133
0	430	1.425652780338	134
0	433	1.463143094934	135
0	436	1.484196307942	136
0	439	1.490519673906	137
0	442	1.497645509839	138
0	455	1.535264782684	138
0	457	1.535838051948	139
0	459	1.545122836917	140
0	461	1.551122305783	141
0	463	1.564564758505	142
0	465	1.564766659786	143
0	467	1.565166422777	144
0	469	1.570995206666	145
0	471	1.574319309076	146
0	478	1.613235010304	146
0	480	1.614515577957	147
0	482	1.618969772576	148
0	484	1.62248153347	149
0	486	1.629037996314	150
0	488	1.630301882678	151
0	490	1.641970617943	152
0	492	1.645797627432	153
0	494	1.667039999402	154
0	496	1.67238884316	155
0	498	1.697427960991	156
0	500	1.698090935006	157
0	502	1.700534889487	158
0	507	1.712326784758	159
0	510	1.720655219919	160
0	513	1.729016195239	161
0	516	1.749048600464	162
0	519	1.752132748865	163
0	522	1.759245228237	164
0	525	1.766652817741	165
0	528	1.791508641311	166
0	531	1.792495144395	167
0	537	1.817898189475	168
0	540	1.826477145886	169
0	543	1.827344850709	170
0	546	1.853837409996	171
0	549	1.857090814151	172
0	552	1.860926416292	173
0	555	1.861020423799	174
0	558	1.8720288829	175
0	561	1.89050215941	176
0	564	1.891915466546	177
0	567	1.902333273088	178
0	572	1.914932611189	179
0	575	1.933345435904	180
0	578	1.936761977574	181
0	581	1.939837154812	182
0	584	1.941860659198	183
0	587	1.946932660431	184
0	590	1.955763950851	185
0	593	1.963811924849	186
0	596	1.964015049437	187
0	599	1.965817571957	188
0	602	1.983474982681	189
0	605	1.988092291641	190
0	608	1.988139357046	191
0	611	1.989722772108	192
0	614	2.001049113528	193
0	617	2.009479943849	194
0	630	2.012627160458	194
0	632	2.024792246992	195
0	634	2.03807982573	196
0	636	2.041483293112	197
0	638	2.074234724889	198
0	640	2.079913766424	199
0	642	2.082773976149	200
0	644	2.096884220242	201
0	646	2.10546814992	202
0	650	2.110511587986	203
0	655	2.119477496694	203
0	657	2.142114832453	204
0	659	2.150607040569	205
0	661	2.160793627869	206
0	663	2.163317827798	207
0	665	2.185532896783	208
0	670	2.216055713352	209
0	673	2.227451792987	210
0	676	2.233378033262	211
0	679	2.239341827205	212
0	682	2.258076426004	213
0	685	2.296506491836	214
0	688	2.308528877508	215
0	691	2.309764143982	216
0	697	2.313294345315	217
0	700	2.327862530901	218
0	703	2.344671752946	219
0	706	2.349978977912	220
0	709	2.35502916539	221
0	712	2.366281985558	222
0	715	2.387576979519	223
0	718	2.39045108428	224
0	721	2.399156442543	225
0	724	2.402913830967	226
0	729	2.424262135467	227
0	732	2.457905839998	228
0	735	2.469699669334	229
0	738	2.478578283438	230
0	741	2.491497376126	231
0	744	2.502275724967	232
0	747	2.509233719576	233
0	760	2.516852397289	233
0	762	2.548107080866	234
0	764	2.550727653283	235
0	766	2.561055623389	236
0	768	2.566078731372	237
0	770	2.571592691273	238
0	772	2.581237226928	239
0	774	2.590561255732	240
0	776	2.597002302815	241
0	778	2.597196100628	242
0	780	2.603547377784	243
0	782	2.607136649943	244
0	789	2.619727085116	244
0	791	2.630520287103	245
0	793	2.633916934429	246
0	795	2.637342930676	247
0	797	2.642179287542	248
0	799	2.6518030381	249
0	801	2.665632830165	250
0	803	2.671232440866	251
0	805	2.692306916916	252
0	807	2.6937626567	253
0	809	2.694848127685	254
0	811	2.698390369007	255
0	813	2.699359596553	256
0	815	2.707798481279	257
0	820	2.712168761417	258
0	823	2.7211060522	259
0	826	2.729131572058	260
0	829	2.737672369414	261
0	832	2.738014403598	262
0	835	2.748604497452	263
0	838	2.783329852245	264
0	841	2.793888348332	265
0	844	2.797759649253	266
0	847	2.803405754264	267
0	850	2.805906569214	268
0	856	2.828592909141	269
0	859	2.830115845394	270
0	862	2.834697574234	271
0	865	2.835720780383	272
0	868	2.841445395897	273
0	871	2.882823493502	274
0	874	2.905072640074	275
0	877	2.908088299206	276
0	882	2.924497274985	277
0	885	2.93219804358	278
0	888	2.944368238533	279
0	891	2.950308973516	280
0	894	2.951365099952	281
0	897	2.952413918308	282
0	900	2.977606739609	283
0	903	2.981950196168	284
0	906	2.994476271417	285
0	909	3.000810897594	286
0	922	3.068464802793	286
0	924	3.086862130644	287
0	926	3.088480831511	288
0	933	3.111982604409	288
0	935	3.13224169258	289
0	937	3.132624521709	290
0	939	3.13439777746	291
0	941	3.141496956732	292
0	943	3.151056620971	293
0	945	3.15288200699	294
0	947	3.154203844086	295
0	949	3.169302078642	296
0	951	3.188141367508	297
0	953	3.208161232463	298
0	958	3.224628423476	299
0	961	3.229928452257	300
0	964	3.238347261874	301
0	967	3.239855171976	302
0	970	3.245083872277	303
0	973	3.245421740133	304
0	976	3.246138493976	305
0	979	3.286636962364	306
0	982	3.298591348027	307
0	985	3.303264073691	308
0	988	3.309307064409	309
0	994	3.31475563569	310
0	997	3.327558977728	311
0	1000	3.32807810325	312
0	1003	3.348205830612	313
0	1006	3.35275494906	314
0	1009	3.389854554979	315
0	1012	3.390022232639	316
0	1015	3.409388005014	317
0	1020	3.412011298106	318
0	1023	3.412129130425	319
0	1026	3.426607071245	320
0	1029	3.43106959945	321
0	1032	3.459915716971	322
0	1035	3.473008700611	323
0	1038	3.486871614131	324
0	1041	3.488754563883	325
0	1044	3.49290068931	326
0	1047	3.50026200031	327
0	1050	3.506986605478	328
0	1053	3.507545306007	329
0	1056	3.511685095234	330
0	1069	3.513916487315	330
0	1071	3.51589478239	331
0	1073	3.516081737094	332
0	1075	3.517956926606	333
0	1077	3.533741053827	334
0	1079	3.539967027267	335
0	1081	3.542502084318	336
0	1083	3.563262394922	337
0	1085	3.567498965936	338
0	1087	3.59634440882	339
0	1094	3.622666597445	339
0	1096	3.632037984622	340
0	1098	3.644225952655	341
0	1100	3.653305592928	342
0	1102	3.653629160974	343
0	1104	3.668937473237	344
0	1106	3.670737046653	345
0	1108	3.677669044348	346
0	1110	3.687383865929	347
0	1112	3.687900694987	348
0	1114	3.696509931354	349
0	1116	3.708519640419	350
0	1118	3.711236321122	351
0	1123	3.760027650002	352
0	1126	3.787241132561	353
0	1129	3.790350810611	354
0	1132	3.799869107686	355
0	1135	3.811235072639	356
0	1141	3.818905869185	357
0	1144	3.83887758886	358
0	1147	3.847791374629	359
0	1150	3.861688145267	360
0	1153	3.874785998981	361
0	1156	3.90816534232	362
0	1159	3.911904207279	363
0	1164	3.919984007813	364
0	1167	3.92506265904	365
0	1170	3.927450187768	366
0	1173	3.929805433502	367
0	1176	3.932321419633	368
0	1179	3.934381740118	369
0	1182	3.936850332806	370
0	1185	3.965741088725	371
0	1188	3.974170876479	372
0	1191	3.987624350811	373
0	1194	3.993641140676	374
0	1197	4.000383586372	375
0	1210	4.035528373177	375
0	1212	4.038108500816	376
0	1214	4.049519879845	377
0	1216	4.052454956364	378
0	1218	4.053346499264	379
0	1220	4.053944308893	380
0	1222	4.054525032514	381
0	1224	4.060224008167	382
0	1226	4.066915145404	383
0	1228	4.070651843348	384
0	1230	4.091938544293	385
0	1232	4.10385712533	386
0	1239	4.141324071468	386
0	1241	4.146068234371	387
0	1243	4.155682630087	388
0	1245	4.15766230744	389
0	1247	4.165482064649	390
0	1249	4.165731948182	391
0	1251	4.185015549551	392
0	1253	4.185711726262	393
0	1255	4.199331043505	394
0	1257	4.21070642856	395
0	1262	4.217218735879	396
0	1265	4.223264548062	397
0	1268	4.234568103521	398
0	1271	4.242259301532	399
0	1274	4.251599904858	400
0	1277	4.274298305016	401
0	1280	4.286840337717	402
0	1286	4.333236862981	403
0	1289	4.339576163175	404
0	1292	4.342021073395	405
0	1295	4.348109402532	406
0	1298	4.358988446868	407
0	1301	4.382677628576	408
0	1304	4.385733677594	409
0	1307	4.387209637923	410
0	1310	4.387418310109	411
0	1313	4.390021824224	412
0	1316	4.40422565878	413
0	1321	4.425561291655	414
0	1324	4.429418168595	415
0	1327	4.452896606209	416
0	1330	4.457732990084	417
0	1333	4.468111490839	418
0	1336	4.476986510124	419
0	1339	4.480912240406	420
0	1342	4.498693673774	421
0	1345	4.506027350506	422
0	1358	4.515942393435	422
0	1360	4.515942946954	423
0	1362	4.536551159363	424
0	1364	4.540288792301	425
0	1366	4.54348453885	426
0	1368	4.54902624714	427
0	1370	4.565023441558	428
0	1372	4.586681078367	429
0	1374	4.588734556054	430
0	1376	4.600125132561	431
0	1383	4.630656979257	431
0	1385	4.636747425384	432
0	1387	4.648378558218	433
0	1389	4.654983589015	434
0	1391	4.657410773952	435
0	1393	4.67295740333	436
0	1395	4.702402206104	437
0	1397	4.705008607398	438
0	1402	4.718133687328	439
0	1405	4.739361153867	440
0	1408	4.742290668452	441
0	1411	4.746054961967	442
0	1414	4.748454197161	443
0	1417	4.780025152575	444
0	1420	4.787327429227	445
0	1423	4.793709315283	446
0	1426	4.793969292735	447
0	1429	4.806402800514	448
0	1432	4.808728050698	449
0	1435	4.81039679711	450
0	1441	4.815925180817	451
0	1444	4.829034904499	452
0	1447	4.833721669259	453
0	1450	4.844113725625	454
0	1453	4.850342018723	455
0	1456	4.852761215171	456
0	1459	4.856013375351	457
0	1462	4.858076955287	458
0	1465	4.866914811847	459
0	1468	4.883395573579	460
0	1471	4.903335965592	461
0	1476	4.91708276513	462
0	1479	4.918333091029	463
0	1482	4.929567696024	464
0	1485	4.936852934451	465
0	1488	4.940094925586	466
0	1491	4.941511345934	467
0	1494	4.943433960342	468
0	1497	4.956052087077	469
0	1500	4.968242080529	470
0	1503	4.973284879862	471
0	1506	4.979505249053	472
0	1509	4.987839031459	473
0	1512	5.006191665488	474
0	1515	5.008216253125	475
0	1518	5.010508696377	476
0	1521	5.012073454081	477
0	1534	5.013876197077	477
0	1536	5.020571602986	478
0	1538	5.021905009219	479
0	1540	5.026299563124	480
0	1542	5.039103806664	481
0	1544	5.067310166148	482
0	1546	5.067619429064	483
0	1548	5.082114976828	484
0	1550	5.095858406972	485
0	1552	5.109668037929	486
0	1554	5.110639714713	487
0	1561	5.13404463432	487
0	1563	5.136496615246	488
0	1565	5.137367701079	489
0	1567	5.151200865741	490
0	1569	5.159234783368	491
0	1571	5.172391045951	492
0	1573	5.181173196738	493
0	1575	5.181640074174	494
0	1580	5.214325038182	495
0	1583	5.216671596675	496
0	1586	5.220126792512	497
0	1589	5.22350833966	498
0	1592	5.22626361903	499
0	1595	5.237572803822	500
0	1598	5.238629675563	501
0	1601	5.239280804211	502
0	1604	5.239446465155	503
0	1607	5.247557875377	504
0	1610	5.274083460532	505
0	1613	5.274176290776	506
0	1616	5.285260388318	507
0	1619	5.303160284363	508
0	1625	5.318538571508	509
0	1628	5.360098282464	510
0	1631	5.363407381276	511
0	1634	5.37556428601	512
0	1637	5.38439309146	513
0	1640	5.386397513411	514
0	1643	5.387058433518	515
0	1646	5.394240898319	516
0	1649	5.400888975815	517
0	1652	5.40957463313	518
0	1657	5.447514870961	519
0	1660	5.463004987753	520
0	1663	5.483920553479	521
0	1666	5.493246672032	522
0	1669	5.497373970699	523
0	1672	5.499838128921	524
0	1685	5.532427338693	524
0	1687	5.538500131579	525
0	1689	5.541135902707	526
0	1691	5.562244790451	527
0	1693	5.592066797206	528
0	1695	5.598844817227	529
0	1702	5.627211219161	529
0	1704	5.639783589117	530
0	1706	5.655838176748	531
0	1708	5.662496601614	532
0	1710	5.672451238048	533
0	1712	5.684780042678	534
0	1714	5.705517657309	535
0	1716	5.712412002687	536
0	1721	5.715879535725	537
0	1724	5.734493852155	538
0	1727	5.753394869136	539
0	1730	5.755555831302	540
0	1733	5.765175950568	541
0	1736	5.780018375395	542
0	1739	5.780151627843	543
0	1745	5.816748201151	544
0	1748	5.821013559271	545
0	1751	5.840841048317	546
0	1754	5.842444389262	547
0	1757	5.85760507856	548
0	1760	5.897684575109	549
0	1765	5.939703169371	550
0	1768	5.946211142795	551
0	1771	5.960217899765	552
0	1774	5.96709733455	553
0	1777	5.967137897763	554
0	1780	5.977339768643	555
0	1783	5.980479747624	556
0	1786	5.985077660802	557
0	1789	5.990362333085	558
0	1792	5.991834583458	559
0	1795	5.997424660158	560
0	1801	6.014690993955	561
0	1811	6.018226959708	561
0	1813	6.02033229259	562
0	1815	6.025459439016	563
0	1817	6.032619892196	564
0	1819	6.033905694569	565
0	1821	6.036445808353	566
0	1823	6.075922141029	567
0	1825	6.076951824666	568
0	1827	6.082162612877	569
0	1829	6.101981516288	570
0	1831	6.110402879316	571
0	1838	6.146492289366	571
0	1840	6.150702222346	572
0	1842	6.183101852015	573
0	1844	6.198654795619	574
0	1849	6.222358671425	575
0	1852	6.227658287218	576
0	1855	6.242532584761	577
0	1858	6.246984078155	578
0	1861	6.251035906978	579
0	1864	6.256135815316	580
0	1867	6.256981610234	581
0	1870	6.260574549285	582
0	1873	6.265804225822	583
0	1876	6.280730547464	584
0	1879	6.283373252105	585
0	1882	6.309438970128	586
0	1885	6.310860225242	587
0	1888	6.314795249353	588
0	1894	6.315344323079	589
0	1897	6.345892920869	590
0	1900	6.358824399457	591
0	1903	6.358964865369	592
0	1906	6.359079797871	593
0	1909	6.366704034713	594
0	1912	6.381426076293	595
0	1915	6.385058498482	596
0	1918	6.386647830279	597
0	1921	6.408091684924	598
0	1924	6.408920307653	599
0	1927	6.411805434756	600
0	1930	6.412744180229	601
0	1935	6.424057967905	602
0	1938	6.435206842124	603
0	1941	6.451836499931	604
0	1944	6.454651740156	605
0	1947	6.460310685572	606
0	1950	6.46576726272	607
0	1953	6.479715953633	608
0	1956	6.487866136942	609
0	1959	6.505562335174	610
0	1972	6.52526291083	610
0	1974	6.530027696656	611
0	1976	6.543012153012	612
0	1978	6.544027493851	613
0	1980	6.547179094138	614
0	1982	6.55013811287	615
0	1984	6.551547791714	616
0	1986	6.560511083764	617
0	1988	6.561080749089	618
0	1990	6.567552496129	619
0	1992	6.571142109313	620
0	1994	6.577835138033	621
0	1996	6.580874853625	622
0	1998	6.587009244521	623
0	2000	6.593099889074	624
0	2002	6.600535720992	625
0	2004	6.612033134869	626
0	2011	6.617867372579	626
0	2013	6.629762335092	627
0	2015	6.648910757668	628
0	2017	6.652244791052	629
0	2019	6.657926495889	630
0	2021	6.662705675764	631
0	2023	6.680242822214	632
0	2025	6.682241377593	633
0	2027	6.689361458249	634
0	2029	6.704898913269	635
0	2031	6.70580228571	636
0	2033	6.706387564699	637
0	2038	6.717176833784	638
0	2041	6.72911696749	639
0	2044	6.73143117721	640
0	2047	6.746513329526	641
0	2050	6.765304513868	642
0	2053	6.780328641805	643
0	2056	6.791765548011	644
0	2059	6.794768798814	645
0	2062	6.796733417673	646
0	2065	6.801414482205	647
0	2068	6.802138673306	648
0	2071	6.810996279766	649
0	2074	6.811093633859	650
0	2077	6.814279472338	651
0	2083	6.836540312232	652
0	2086	6.841174212507	653
0	2089	6.842606742721	654
0	2092	6.84480142433	655
0	2095	6.859906040342	656
0	2098	6.86606523318	657
0	2101	6.891989719268	658
0	2104	6.892446099763	659
0	2107	6.905005034606	660
0	2112	6.921089213097	661
0	2115	6.927838722834	662
0	2118	6.928639511393	663
0	2121	6.934978832658	664
0	2124	6.942294286049	665
0	2127	6.963725283053	666
0	2130	6.967389795971	667
0	2133	6.974092114737	668
0	2136	6.982708789655	669
0	2139	6.988062833166	670
0	2152	7.020110921462	670
0	2154	7.022023881921	671
0	2156	7.032396332862	672
0	2158	7.038845417774	673
0	2160	7.039205446071	674
0	2162	7.05451393026	675
0	2164	7.060142182278	676
0	2166	7.06827116589	677
0	2168	7.075405008718	678
0	2170	7.077146960322	679
0	2172	7.084829493741	680
0	2174	7.086382349596	681
0	2176	7.097820303387	682
0	2178	7.108303194437	683
0	2180	7.111554903142	684
0	2187	7.119303326937	684
0	2189	7.120682859256	685
0	2191	7.124623434975	686
0	2193	7.129610358304	687
0	2195	7.131200478472	688
0	2197	7.162528773367	689
0	2199	7.164270760533	690
0	2201	7.166342612356	691
0	2203	7.16772848057	692
0	2205	7.191160879871	693
0	2207	7.199810260965	694
0	2209	7.207658631161	695
0	2211	7.208626605884	696
0	2213	7.214731434334	697
0	2218	7.238871598639	698
0	2221	7.260245815543	699
0	2224	7.261111985487	700
0	2227	7.267248027584	701
0	2230	7.283361347575	702
0	2233	7.296240967326	703
0	2239	7.317207330061	704
0	2242	7.32229935493	705
0	2245	7.323280550156	706
0	2248	7.346719246564	707
0	2251	7.352275835696	708
0	2254	7.363988472645	709
0	2257	7.370398208098	710
0	2260	7.382425345936	711
0	2263	7.391105045756	712
0	2266	7.395075855256	713
0	2269	7.407672266962	714
0	2274	7.421810100257	715
0	2277	7.422084521261	716
0	2280	7.432192212892	717
0	2283	7.445337433873	718
0	2286	7.448082069093	719
0	2289	7.462647671209	720
0	2292	7.464397621691	721
0	2295	7.464495766055	722
0	2298	7.480411327283	723
0	2301	7.484097156679	724
0	2305	7.516079706447	725
0	2317	7.518730637461	725
0	2319	7.52485809191	726
0	2321	7.531858348271	727
0	2323	7.540798362298	728
0	2325	7.571529114526	729
0	2327	7.591028883644	730
0	2329	7.599189069284	731
0	2331	7.605299644897	732
0	2333	7.606325163827	733
0	2340	7.636664589551	733
0	2342	7.646384698462	734
0	2344	7.654959049488	735
0	2346	7.674838444036	736
0	2348	7.692029137154	737
0	2350	7.693744523428	738
0	2355	7.717696321322	739
0	2358	7.766531311225	740
0	2361	7.783433660773	741
0	2364	7.7843219846	742
0	2367	7.786058550232	743
0	2370	7.787050765497	744
0	2373	7.796963560555	745
0	2376	7.807004072294	746
0	2379	7.812086266835	747
0	2385	7.841904063408	748
0	2388	7.842551720336	749
0	2391	7.870157764893	750
0	2394	7.875674801019	751
0	2397	7.881605616992	752
0	2400	7.884598900816	753
0	2403	7.897607275091	754
0	2406	7.916514566635	755
0	2411	7.930071751774	756
0	2414	7.930410470326	757
0	2417	7.934077521864	758
0	2420	7.966015140591	759
0	2423	7.967290876329	760
0	2426	7.971681646185	761
0	2429	7.977549334252	762
0	2432	7.981960882359	763
0	2435	7.986932975222	764
0	2438	7.987097608062	765
0	2441	7.994687255804	766
0	2444	7.996735778475	767
0	2447	8.015402183177	768
0	2460	8.020531453095	768
0	2462	8.028216078869	769
0	2464	8.054707961491	770
0	2466	8.06611075026	771
0	2468	8.067160077733	772
0	2470	8.076555097592	773
0	2472	8.105614293629	774
0	2474	8.106651001995	775
0	2481	8.127013943868	775
0	2483	8.127979356658	776
0	2485	8.134033694474	777
0	2487	8.134609623642	778
0	2489	8.138565279646	779
0	2491	8.139470354347	780
0	2493	8.142119703723	781
0	2495	8.14482694763	782
0	2497	8.154358173013	783
0	2499	8.172653594572	784
0	2501	8.172989933781	785
0	2503	8.18037913398	786
0	2505	8.180536425218	787
0	2507	8.187732874195	788
0	2509	8.193332957928	789
0	2511	8.203826379587	790
0	2513	8.204531399071	791
0	2515	8.21239698999	792
0	2517	8.215299724141	793
0	2519	8.215629763992	794
0	2524	8.218129272158	795
0	2527	8.226807890857	796
0	2530	8.229727351574	797
0	2533	8.244471573822	798
0	2536	8.245876330992	799
0	2539	8.25059601187	800
0	2542	8.250717104321	801
0	2545	8.257470663023	802
0	2548	8.258697813096	803
0	2551	8.298673447863	804
0	2554	8.308309374826	805
0	2557	8.311115134088	806
0	2563	8.347710755273	807
0	2566	8.352399968546	808
0	2569	8.398802768505	809
0	2572	8.399270117522	810
0	2575	8.40453042548	811
0	2578	8.408242042688	812
0	2581	8.410020810267	813
0	2586	8.427830157016	814
0	2589	8.438012332804	815
0	2592	8.454464167075	816
0	2595	8.461203601517	817
0	2598	8.471420784991	818
0	2601	8.51689902351	819
0	2614	8.521489302785	819
0	2616	8.522164644354	820
0	2618	8.525915263785	821
0	2620	8.541204652492	822
0	2622	8.557391263156	823
0	2624	8.560793635352	824
0	2626	8.561524151924	825
0	2628	8.564287203853	826
0	2630	8.575793829782	827
0	2632	8.586655862894	828
0	2634	8.591447989839	829
0	2636	8.594272456959	830
0	2638	8.60432179005	831
0	2640	8.61528371566	832
0	2647	8.641440124984	832
0	2649	8.648723900714	833
0	2651	8.667961286421	834
0	2653	8.673479307637	835
0	2655	8.680364446517	836
0	2657	8.688454243468	837
0	2659	8.694037511361	838
0	2661	8.697420972548	839
0	2663	8.714712168925	840
0	2668	8.726973491047	841
0	2671	8.740376250667	842
0	2674	8.74573523862	843
0	2677	8.751661812799	844
0	2680	8.756133211825	845
0	2683	8.79083966263	846
0	2686	8.808480536552	847
0	2689	8.812992924537	848
0	2695	8.838891185992	849
0	2698	8.843958418131	850
0	2701	8.844429410842	851
0	2704	8.857849608254	852
0	2707	8.860497430987	853
0	2710	8.866459149901	854
0	2713	8.870744225943	855
0	2716	8.898435670771	856
0	2719	8.915307853659	857
0	2724	8.918281588938	858
0	2727	8.960611746901	859
0	2730	8.965420529144	860
0	2733	9.000149086203	861
0	2736	9.012093985638	862
0	2749	9.035627333319	862
0	2751	9.058364404986	863
0	2753	9.06188207884	864
0	2755	9.063172463872	865
0	2757	9.111469666352	866
0	2759	9.114234393517	867
0	2761	9.117103484471	868
0	2768	9.11969460703	868
0	2770	9.120814052441	869
0	2772	9.127537881461	870
0	2774	9.157687564183	871
0	2776	9.179899706015	872
0	2778	9.182557871505	873
0	2780	9.186991215465	874
0	2782	9.198695572765	875
0	2784	9.203560764163	876
0	2786	9.204162047854	877
0	2791	9.229018358697	878
0	2794	9.242137989508	879
0	2797	9.243346303471	880
0	2800	9.264693327416	881
0	2803	9.274666316658	882
0	2806	9.27784686211	883
0	2809	9.279271891567	884
0	2812	9.284037049777	885
0	2815	9.288725006693	886
0	2818	9.293413788249	887
0	2821	9.297335401145	888
0	2824	9.311149991943	889
0	2830	9.32254794601	890
0	2833	9.325263503927	891
0	2836	9.341137076224	892
0	2839	9.343022723467	893
0	2842	9.35003317856	894
0	2845	9.355998677729	895
0	2848	9.359511890544	896
0	2851	9.363142678946	897
0	2854	9.38485493776	898
0	2857	9.403130200438	899
0	2860	9.407466848992	900
0	2863	9.410181548656	901
0	2868	9.423590565902	902
0	2871	9.43056994139	903
0	2874	9.438674872862	904
0	2877	9.46724912634	905
0	2880	9.469499551279	906
0	2883	9.479550707765	907
0	2886	9.487502929778	908
0	2889	9.50769877481	909
0	2892	9.515031028197	910
0	2905	9.543200145497	910
0	2907	9.547489263855	911
0	2909	9.561382848924	912
0	2911	9.561632129881	913
0	2913	9.573657703328	914
0	2915	9.575269129116	915
0	2917	9.609678569592	916
0	2919	9.611092500719	917
0	2926	9.662943794949	917
0	2928	9.675250983459	918
0	2930	9.681262529923	919
0	2932	9.693609328684	920
0	2934	9.694344392458	921
0	2936	9.703805409871	922
0	2938	9.707269743146	923
0	2940	9.718414325463	924
0	2945	9.720067255586	925
0	2948	9.726000561269	926
0	2951	9.731404588245	927
0	2954	9.743314402779	928
0	2957	9.744721854333	929
0	2960	9.749475251029	930
0	2963	9.758741637032	931
0	2966	9.759795598331	932
0	2969	9.764621350483	933
0	2972	9.79687451132	934
0	2978	9.819449279228	935
0	2981	9.82020119732	936
0	2984	9.854557431245	937
0	2987	9.854752324175	938
0	2990	9.862668415121	939
0	2993	9.901577516025	940
0	2996	9.904790919054	941
0	2999	9.90639821946	942
0	3002	9.915368749601	943
0	3005	9.91836227963	944
0	3010	9.941069380704	945
0	3013	9.943496835078	946
0	3016	9.948717948122	947
0	3019	9.95739086831	948
0	3022	9.965422236029	949
0	3025	10.002616319138	950
0	3028	10.005786092937	951
0	3031	10.008974503421	952
0	3034	10.015052351062	953
0	3047	10.050142986572	953
0	3049	10.055279842705	954
0	3051	10.055538123149	955
0	3053	10.058393812354	956
0	3055	10.0802902795	957
0	3057	10.087339772714	958
0	3059	10.099670659986	959
0	3061	10.103386817534	960
0	3063	10.106640984706	961
0	3065	10.111309628142	962
0	3072	10.133834556843	962
0	3074	10.141278339457	963
0	3076	10.141547145652	964
0	3078	10.155433918391	965
0	3080	10.165259201818	966
0	3082	10.169316465257	967
0	3084	10.173314417982	968
0	3086	10.19910554929	969
0	3091	10.233254798314	970
0	3094	10.253082924117	971
0	3097	10.254929082846	972
0	3100	10.25542823887	973
0	3103	10.278603499496	974
0	3106	10.281529005508	975
0	3109	10.285532820823	976
0	3112	10.291441173027	977
0	3115	10.313444466231	978
0	3118	10.314549624997	979
0	3124	10.321733283349	980
0	3127	10.326017693637	981
0	3130	10.333164035511	982
0	3133	10.346638523748	983
0	3136	10.351529607854	984
0	3139	10.362940041197	985
0	3142	10.370492159375	986
0	3145	10.38023094529	987
0	3148	10.40918212146	988
0	3153	10.421579102266	989
0	3156	10.443915500777	990
0	3159	10.446208672493	991
0	3162	10.457513244476	992
0	3165	10.461694161065	993
0	3168	10.471883692876	994
0	3171	10.483161297212	995
0	3174	10.491110025573	996
0	3177	10.512249093719	997
0	3180	10.51543302388	998
0	3193	10.523278590849	998
0	3195	10.524883431923	999
0	3197	10.528206038159	1000
0	3199	10.547606520258	1001
0	3201	10.547913537988	1002
0	3203	10.557993673393	1003
0	3205	10.570384038467	1004
0	3207	10.573945696283	1005
0	3209	10.574024849748	1006
0	3211	10.580190780633	1007
0	3213	10.584853750897	1008
0	3215	10.585102082974	1009
0	3217	10.592663745452	1010
0	3219	10.60082967234	1011
0	3226	10.626354437275	1011
0	3228	10.630835316959	1012
0	3230	10.631772870835	1013
0	3232	10.638758680896	1014
0	3234	10.643966469545	1015
0	3236	10.645634427126	1016
0	3238	10.645880563567	1017
0	3240	10.651423248301	1018
0	3242	10.655618041536	1019
0	3244	10.679280944174	1020
0	3246	10.68901566961	1021
0	3248	10.689101149796	1022
0	3250	10.692373253609	1023
0	3255	10.727067191997	1024
0	3258	10.729421250662	1025
0	3261	10.74116195203	1026
0	3264	10.742391577699	1027
0	3267	10.743438700433	1028
0	3270	10.752045847508	1029
0	3273	10.755467594424	1030
0	3276	10.767350886027	1031
0	3279	10.775096053906	1032
0	3282	10.786242163936	1033
0	3285	10.799121066327	1034
0	3291	10.828853149722	1035
0	3294	10.833777563486	1036
0	3297	10.833804632232	1037
0	3300	10.836380480895	1038
0	3303	10.846798925543	1039
0	3306	10.852866049635	1040
0	3309	10.862038767604	1041
0	3312	10.897823784862	1042
0	3315	10.906709071985	1043
0	3320	10.924655803125	1044
0	3323	10.957562291428	1045
0	3326	10.982188734122	1046
0	3329	10.982358890359	1047
0	3332	10.993363575664	1048
0	3335	11.005286733406	1049
0	3338	11.011096819961	1050
0	3351	11.027899643962	1050
0	3353	11.039454391249	1051
0	3355	11.04658395604	1052
0	3357	11.057042208968	1053
0	3359	11.061106337635	1054
0	3361	11.061401655747	1055
0	3363	11.077048221254	1056
0	3365	11.102247108192	1057
0	3367	11.103270126002	1058
0	3369	11.111088970233	1059
0	3371	11.116923571956	1060
0	3378	11.164187523925	1060
0	3380	11.171526223595	1061
0	3382	11.176356753838	1062
0	3384	11.188197031201	1063
0	3386	11.204630563553	1064
0	3388	11.205583408382	1065
0	3390	11.211763932153	1066
0	3392	11.21434852464	1067
0	3397	11.231883005823	1068
0	3400	11.23716444573	1069
0	3403	11.244910583094	1070
0	3406	11.254673503324	1071
0	3409	11.276500642217	1072
0	3412	11.298300846689	1073
0	3415	11.319512391257	1074
0	3421	11.329157388875	1075
0	3424	11.333136872821	1076
0	3427	11.334569359859	1077
0	3430	11.33975163834	1078
0	3433	11.379166225186	1079
0	3436	11.387033056341	1080
0	3439	11.40757358118	1081
0	3442	11.417294070865	1082
0	3447	11.424280106534	1083
0	3450	11.429050084043	1084